V -t * -v 1.0a5 -a 0
A -t * -n 1 -p 0 -o 0x7fffffff -c 30 -a 1
A -t * -h 1 -m 1073741823 -s 0
n -t * -a 0 -s 0 -S UP -v circle -c black -i black
n -t * -a 1 -s 1 -S UP -v circle -c black -i black
l -t * -s 0 -d 1 -S UP -r 30000000 -D 0.040000000000000001 -c black
+ -t 0 -s 0 -d 1 -p tcp -e 40 -c 0 -i 0 -a 0 -x {0.0 1.0 0 ------- null}
- -t 0 -s 0 -d 1 -p tcp -e 40 -c 0 -i 0 -a 0 -x {0.0 1.0 0 ------- null}
h -t 0 -s 0 -d 1 -p tcp -e 40 -c 0 -i 0 -a 0 -x {0.0 1.0 -1 ------- null}
r -t 0.0400106666666667 -s 0 -d 1 -p tcp -e 40 -c 0 -i 0 -a 0 -x {0.0 1.0 0 ------- null}
+ -t 0.0400106666666667 -s 1 -d 0 -p ack -e 40 -c 0 -i 1 -a 0 -x {1.0 0.0 0 ------- null}
- -t 0.0400106666666667 -s 1 -d 0 -p ack -e 40 -c 0 -i 1 -a 0 -x {1.0 0.0 0 ------- null}
h -t 0.0400106666666667 -s 1 -d 0 -p ack -e 40 -c 0 -i 1 -a 0 -x {1.0 0.0 -1 ------- null}
r -t 0.0800213333333333 -s 1 -d 0 -p ack -e 40 -c 0 -i 1 -a 0 -x {1.0 0.0 0 ------- null}
+ -t 0.0800213333333333 -s 0 -d 1 -p tcp -e 1540 -c 0 -i 2 -a 0 -x {0.0 1.0 1 ------- null}
- -t 0.0800213333333333 -s 0 -d 1 -p tcp -e 1540 -c 0 -i 2 -a 0 -x {0.0 1.0 1 ------- null}
h -t 0.0800213333333333 -s 0 -d 1 -p tcp -e 1540 -c 0 -i 2 -a 0 -x {0.0 1.0 -1 ------- null}
+ -t 0.0800213333333333 -s 0 -d 1 -p tcp -e 1540 -c 0 -i 3 -a 0 -x {0.0 1.0 2 ------- null}
- -t 0.080432 -s 0 -d 1 -p tcp -e 1540 -c 0 -i 3 -a 0 -x {0.0 1.0 2 ------- null}
h -t 0.080432 -s 0 -d 1 -p tcp -e 1540 -c 0 -i 3 -a 0 -x {0.0 1.0 -1 ------- null}
r -t 0.120432 -s 0 -d 1 -p tcp -e 1540 -c 0 -i 2 -a 0 -x {0.0 1.0 1 ------- null}
+ -t 0.120432 -s 1 -d 0 -p ack -e 40 -c 0 -i 4 -a 0 -x {1.0 0.0 1 ------- null}
- -t 0.120432 -s 1 -d 0 -p ack -e 40 -c 0 -i 4 -a 0 -x {1.0 0.0 1 ------- null}
h -t 0.120432 -s 1 -d 0 -p ack -e 40 -c 0 -i 4 -a 0 -x {1.0 0.0 -1 ------- null}
r -t 0.120842666666667 -s 0 -d 1 -p tcp -e 1540 -c 0 -i 3 -a 0 -x {0.0 1.0 2 ------- null}
+ -t 0.120842666666667 -s 1 -d 0 -p ack -e 40 -c 0 -i 5 -a 0 -x {1.0 0.0 2 ------- null}
- -t 0.120842666666667 -s 1 -d 0 -p ack -e 40 -c 0 -i 5 -a 0 -x {1.0 0.0 2 ------- null}
h -t 0.120842666666667 -s 1 -d 0 -p ack -e 40 -c 0 -i 5 -a 0 -x {1.0 0.0 -1 ------- null}
r -t 0.160442666666667 -s 1 -d 0 -p ack -e 40 -c 0 -i 4 -a 0 -x {1.0 0.0 1 ------- null}
+ -t 0.160442666666667 -s 0 -d 1 -p tcp -e 1540 -c 0 -i 6 -a 0 -x {0.0 1.0 3 ------- null}
- -t 0.160442666666667 -s 0 -d 1 -p tcp -e 1540 -c 0 -i 6 -a 0 -x {0.0 1.0 3 ------- null}
h -t 0.160442666666667 -s 0 -d 1 -p tcp -e 1540 -c 0 -i 6 -a 0 -x {0.0 1.0 -1 ------- null}
+ -t 0.160442666666667 -s 0 -d 1 -p tcp -e 1540 -c 0 -i 7 -a 0 -x {0.0 1.0 4 ------- null}
r -t 0.160853333333333 -s 1 -d 0 -p ack -e 40 -c 0 -i 5 -a 0 -x {1.0 0.0 2 ------- null}
+ -t 0.160853333333333 -s 0 -d 1 -p tcp -e 1540 -c 0 -i 8 -a 0 -x {0.0 1.0 5 ------- null}
+ -t 0.160853333333333 -s 0 -d 1 -p tcp -e 1540 -c 0 -i 9 -a 0 -x {0.0 1.0 6 ------- null}
- -t 0.160853333333333 -s 0 -d 1 -p tcp -e 1540 -c 0 -i 7 -a 0 -x {0.0 1.0 4 ------- null}
h -t 0.160853333333333 -s 0 -d 1 -p tcp -e 1540 -c 0 -i 7 -a 0 -x {0.0 1.0 -1 ------- null}
- -t 0.161264 -s 0 -d 1 -p tcp -e 1540 -c 0 -i 8 -a 0 -x {0.0 1.0 5 ------- null}
h -t 0.161264 -s 0 -d 1 -p tcp -e 1540 -c 0 -i 8 -a 0 -x {0.0 1.0 -1 ------- null}
- -t 0.161674666666667 -s 0 -d 1 -p tcp -e 1540 -c 0 -i 9 -a 0 -x {0.0 1.0 6 ------- null}
h -t 0.161674666666667 -s 0 -d 1 -p tcp -e 1540 -c 0 -i 9 -a 0 -x {0.0 1.0 -1 ------- null}
r -t 0.200853333333333 -s 0 -d 1 -p tcp -e 1540 -c 0 -i 6 -a 0 -x {0.0 1.0 3 ------- null}
+ -t 0.200853333333333 -s 1 -d 0 -p ack -e 40 -c 0 -i 10 -a 0 -x {1.0 0.0 3 ------- null}
- -t 0.200853333333333 -s 1 -d 0 -p ack -e 40 -c 0 -i 10 -a 0 -x {1.0 0.0 3 ------- null}
h -t 0.200853333333333 -s 1 -d 0 -p ack -e 40 -c 0 -i 10 -a 0 -x {1.0 0.0 -1 ------- null}
r -t 0.201264 -s 0 -d 1 -p tcp -e 1540 -c 0 -i 7 -a 0 -x {0.0 1.0 4 ------- null}
+ -t 0.201264 -s 1 -d 0 -p ack -e 40 -c 0 -i 11 -a 0 -x {1.0 0.0 4 ------- null}
- -t 0.201264 -s 1 -d 0 -p ack -e 40 -c 0 -i 11 -a 0 -x {1.0 0.0 4 ------- null}
h -t 0.201264 -s 1 -d 0 -p ack -e 40 -c 0 -i 11 -a 0 -x {1.0 0.0 -1 ------- null}
r -t 0.201674666666667 -s 0 -d 1 -p tcp -e 1540 -c 0 -i 8 -a 0 -x {0.0 1.0 5 ------- null}
+ -t 0.201674666666667 -s 1 -d 0 -p ack -e 40 -c 0 -i 12 -a 0 -x {1.0 0.0 5 ------- null}
- -t 0.201674666666667 -s 1 -d 0 -p ack -e 40 -c 0 -i 12 -a 0 -x {1.0 0.0 5 ------- null}
h -t 0.201674666666667 -s 1 -d 0 -p ack -e 40 -c 0 -i 12 -a 0 -x {1.0 0.0 -1 ------- null}
r -t 0.202085333333333 -s 0 -d 1 -p tcp -e 1540 -c 0 -i 9 -a 0 -x {0.0 1.0 6 ------- null}
+ -t 0.202085333333333 -s 1 -d 0 -p ack -e 40 -c 0 -i 13 -a 0 -x {1.0 0.0 6 ------- null}
- -t 0.202085333333333 -s 1 -d 0 -p ack -e 40 -c 0 -i 13 -a 0 -x {1.0 0.0 6 ------- null}
h -t 0.202085333333333 -s 1 -d 0 -p ack -e 40 -c 0 -i 13 -a 0 -x {1.0 0.0 -1 ------- null}
r -t 0.240864 -s 1 -d 0 -p ack -e 40 -c 0 -i 10 -a 0 -x {1.0 0.0 3 ------- null}
+ -t 0.240864 -s 0 -d 1 -p tcp -e 1540 -c 0 -i 14 -a 0 -x {0.0 1.0 7 ------- null}
- -t 0.240864 -s 0 -d 1 -p tcp -e 1540 -c 0 -i 14 -a 0 -x {0.0 1.0 7 ------- null}
h -t 0.240864 -s 0 -d 1 -p tcp -e 1540 -c 0 -i 14 -a 0 -x {0.0 1.0 -1 ------- null}
+ -t 0.240864 -s 0 -d 1 -p tcp -e 1540 -c 0 -i 15 -a 0 -x {0.0 1.0 8 ------- null}
r -t 0.241274666666667 -s 1 -d 0 -p ack -e 40 -c 0 -i 11 -a 0 -x {1.0 0.0 4 ------- null}
+ -t 0.241274666666667 -s 0 -d 1 -p tcp -e 1540 -c 0 -i 16 -a 0 -x {0.0 1.0 9 ------- null}
+ -t 0.241274666666667 -s 0 -d 1 -p tcp -e 1540 -c 0 -i 17 -a 0 -x {0.0 1.0 10 ------- null}
- -t 0.241274666666667 -s 0 -d 1 -p tcp -e 1540 -c 0 -i 15 -a 0 -x {0.0 1.0 8 ------- null}
h -t 0.241274666666667 -s 0 -d 1 -p tcp -e 1540 -c 0 -i 15 -a 0 -x {0.0 1.0 -1 ------- null}
r -t 0.241685333333333 -s 1 -d 0 -p ack -e 40 -c 0 -i 12 -a 0 -x {1.0 0.0 5 ------- null}
+ -t 0.241685333333333 -s 0 -d 1 -p tcp -e 1540 -c 0 -i 18 -a 0 -x {0.0 1.0 11 ------- null}
+ -t 0.241685333333333 -s 0 -d 1 -p tcp -e 1540 -c 0 -i 19 -a 0 -x {0.0 1.0 12 ------- null}
- -t 0.241685333333333 -s 0 -d 1 -p tcp -e 1540 -c 0 -i 16 -a 0 -x {0.0 1.0 9 ------- null}
h -t 0.241685333333333 -s 0 -d 1 -p tcp -e 1540 -c 0 -i 16 -a 0 -x {0.0 1.0 -1 ------- null}
r -t 0.242096 -s 1 -d 0 -p ack -e 40 -c 0 -i 13 -a 0 -x {1.0 0.0 6 ------- null}
+ -t 0.242096 -s 0 -d 1 -p tcp -e 1540 -c 0 -i 20 -a 0 -x {0.0 1.0 13 ------- null}
+ -t 0.242096 -s 0 -d 1 -p tcp -e 1540 -c 0 -i 21 -a 0 -x {0.0 1.0 14 ------- null}
- -t 0.242096 -s 0 -d 1 -p tcp -e 1540 -c 0 -i 17 -a 0 -x {0.0 1.0 10 ------- null}
h -t 0.242096 -s 0 -d 1 -p tcp -e 1540 -c 0 -i 17 -a 0 -x {0.0 1.0 -1 ------- null}
- -t 0.242506666666667 -s 0 -d 1 -p tcp -e 1540 -c 0 -i 18 -a 0 -x {0.0 1.0 11 ------- null}
h -t 0.242506666666667 -s 0 -d 1 -p tcp -e 1540 -c 0 -i 18 -a 0 -x {0.0 1.0 -1 ------- null}
- -t 0.242917333333333 -s 0 -d 1 -p tcp -e 1540 -c 0 -i 19 -a 0 -x {0.0 1.0 12 ------- null}
h -t 0.242917333333333 -s 0 -d 1 -p tcp -e 1540 -c 0 -i 19 -a 0 -x {0.0 1.0 -1 ------- null}
- -t 0.243328 -s 0 -d 1 -p tcp -e 1540 -c 0 -i 20 -a 0 -x {0.0 1.0 13 ------- null}
h -t 0.243328 -s 0 -d 1 -p tcp -e 1540 -c 0 -i 20 -a 0 -x {0.0 1.0 -1 ------- null}
- -t 0.243738666666667 -s 0 -d 1 -p tcp -e 1540 -c 0 -i 21 -a 0 -x {0.0 1.0 14 ------- null}
h -t 0.243738666666667 -s 0 -d 1 -p tcp -e 1540 -c 0 -i 21 -a 0 -x {0.0 1.0 -1 ------- null}
r -t 0.281274666666667 -s 0 -d 1 -p tcp -e 1540 -c 0 -i 14 -a 0 -x {0.0 1.0 7 ------- null}
+ -t 0.281274666666667 -s 1 -d 0 -p ack -e 40 -c 0 -i 22 -a 0 -x {1.0 0.0 7 ------- null}
- -t 0.281274666666667 -s 1 -d 0 -p ack -e 40 -c 0 -i 22 -a 0 -x {1.0 0.0 7 ------- null}
h -t 0.281274666666667 -s 1 -d 0 -p ack -e 40 -c 0 -i 22 -a 0 -x {1.0 0.0 -1 ------- null}
r -t 0.281685333333333 -s 0 -d 1 -p tcp -e 1540 -c 0 -i 15 -a 0 -x {0.0 1.0 8 ------- null}
+ -t 0.281685333333333 -s 1 -d 0 -p ack -e 40 -c 0 -i 23 -a 0 -x {1.0 0.0 8 ------- null}
- -t 0.281685333333333 -s 1 -d 0 -p ack -e 40 -c 0 -i 23 -a 0 -x {1.0 0.0 8 ------- null}
h -t 0.281685333333333 -s 1 -d 0 -p ack -e 40 -c 0 -i 23 -a 0 -x {1.0 0.0 -1 ------- null}
r -t 0.282096 -s 0 -d 1 -p tcp -e 1540 -c 0 -i 16 -a 0 -x {0.0 1.0 9 ------- null}
+ -t 0.282096 -s 1 -d 0 -p ack -e 40 -c 0 -i 24 -a 0 -x {1.0 0.0 9 ------- null}
- -t 0.282096 -s 1 -d 0 -p ack -e 40 -c 0 -i 24 -a 0 -x {1.0 0.0 9 ------- null}
h -t 0.282096 -s 1 -d 0 -p ack -e 40 -c 0 -i 24 -a 0 -x {1.0 0.0 -1 ------- null}
r -t 0.282506666666667 -s 0 -d 1 -p tcp -e 1540 -c 0 -i 17 -a 0 -x {0.0 1.0 10 ------- null}
+ -t 0.282506666666667 -s 1 -d 0 -p ack -e 40 -c 0 -i 25 -a 0 -x {1.0 0.0 10 ------- null}
- -t 0.282506666666667 -s 1 -d 0 -p ack -e 40 -c 0 -i 25 -a 0 -x {1.0 0.0 10 ------- null}
h -t 0.282506666666667 -s 1 -d 0 -p ack -e 40 -c 0 -i 25 -a 0 -x {1.0 0.0 -1 ------- null}
r -t 0.282917333333333 -s 0 -d 1 -p tcp -e 1540 -c 0 -i 18 -a 0 -x {0.0 1.0 11 ------- null}
+ -t 0.282917333333333 -s 1 -d 0 -p ack -e 40 -c 0 -i 26 -a 0 -x {1.0 0.0 11 ------- null}
- -t 0.282917333333333 -s 1 -d 0 -p ack -e 40 -c 0 -i 26 -a 0 -x {1.0 0.0 11 ------- null}
h -t 0.282917333333333 -s 1 -d 0 -p ack -e 40 -c 0 -i 26 -a 0 -x {1.0 0.0 -1 ------- null}
r -t 0.283328 -s 0 -d 1 -p tcp -e 1540 -c 0 -i 19 -a 0 -x {0.0 1.0 12 ------- null}
+ -t 0.283328 -s 1 -d 0 -p ack -e 40 -c 0 -i 27 -a 0 -x {1.0 0.0 12 ------- null}
- -t 0.283328 -s 1 -d 0 -p ack -e 40 -c 0 -i 27 -a 0 -x {1.0 0.0 12 ------- null}
h -t 0.283328 -s 1 -d 0 -p ack -e 40 -c 0 -i 27 -a 0 -x {1.0 0.0 -1 ------- null}
r -t 0.283738666666667 -s 0 -d 1 -p tcp -e 1540 -c 0 -i 20 -a 0 -x {0.0 1.0 13 ------- null}
+ -t 0.283738666666667 -s 1 -d 0 -p ack -e 40 -c 0 -i 28 -a 0 -x {1.0 0.0 13 ------- null}
- -t 0.283738666666667 -s 1 -d 0 -p ack -e 40 -c 0 -i 28 -a 0 -x {1.0 0.0 13 ------- null}
h -t 0.283738666666667 -s 1 -d 0 -p ack -e 40 -c 0 -i 28 -a 0 -x {1.0 0.0 -1 ------- null}
r -t 0.284149333333333 -s 0 -d 1 -p tcp -e 1540 -c 0 -i 21 -a 0 -x {0.0 1.0 14 ------- null}
+ -t 0.284149333333333 -s 1 -d 0 -p ack -e 40 -c 0 -i 29 -a 0 -x {1.0 0.0 14 ------- null}
- -t 0.284149333333333 -s 1 -d 0 -p ack -e 40 -c 0 -i 29 -a 0 -x {1.0 0.0 14 ------- null}
h -t 0.284149333333333 -s 1 -d 0 -p ack -e 40 -c 0 -i 29 -a 0 -x {1.0 0.0 -1 ------- null}
r -t 0.321285333333333 -s 1 -d 0 -p ack -e 40 -c 0 -i 22 -a 0 -x {1.0 0.0 7 ------- null}
+ -t 0.321285333333333 -s 0 -d 1 -p tcp -e 1540 -c 0 -i 30 -a 0 -x {0.0 1.0 15 ------- null}
- -t 0.321285333333333 -s 0 -d 1 -p tcp -e 1540 -c 0 -i 30 -a 0 -x {0.0 1.0 15 ------- null}
h -t 0.321285333333333 -s 0 -d 1 -p tcp -e 1540 -c 0 -i 30 -a 0 -x {0.0 1.0 -1 ------- null}
+ -t 0.321285333333333 -s 0 -d 1 -p tcp -e 1540 -c 0 -i 31 -a 0 -x {0.0 1.0 16 ------- null}
r -t 0.321696 -s 1 -d 0 -p ack -e 40 -c 0 -i 23 -a 0 -x {1.0 0.0 8 ------- null}
+ -t 0.321696 -s 0 -d 1 -p tcp -e 1540 -c 0 -i 32 -a 0 -x {0.0 1.0 17 ------- null}
+ -t 0.321696 -s 0 -d 1 -p tcp -e 1540 -c 0 -i 33 -a 0 -x {0.0 1.0 18 ------- null}
- -t 0.321696 -s 0 -d 1 -p tcp -e 1540 -c 0 -i 31 -a 0 -x {0.0 1.0 16 ------- null}
h -t 0.321696 -s 0 -d 1 -p tcp -e 1540 -c 0 -i 31 -a 0 -x {0.0 1.0 -1 ------- null}
r -t 0.322106666666667 -s 1 -d 0 -p ack -e 40 -c 0 -i 24 -a 0 -x {1.0 0.0 9 ------- null}
+ -t 0.322106666666667 -s 0 -d 1 -p tcp -e 1540 -c 0 -i 34 -a 0 -x {0.0 1.0 19 ------- null}
+ -t 0.322106666666667 -s 0 -d 1 -p tcp -e 1540 -c 0 -i 35 -a 0 -x {0.0 1.0 20 ------- null}
- -t 0.322106666666667 -s 0 -d 1 -p tcp -e 1540 -c 0 -i 32 -a 0 -x {0.0 1.0 17 ------- null}
h -t 0.322106666666667 -s 0 -d 1 -p tcp -e 1540 -c 0 -i 32 -a 0 -x {0.0 1.0 -1 ------- null}
r -t 0.322517333333333 -s 1 -d 0 -p ack -e 40 -c 0 -i 25 -a 0 -x {1.0 0.0 10 ------- null}
+ -t 0.322517333333333 -s 0 -d 1 -p tcp -e 1540 -c 0 -i 36 -a 0 -x {0.0 1.0 21 ------- null}
+ -t 0.322517333333333 -s 0 -d 1 -p tcp -e 1540 -c 0 -i 37 -a 0 -x {0.0 1.0 22 ------- null}
- -t 0.322517333333333 -s 0 -d 1 -p tcp -e 1540 -c 0 -i 33 -a 0 -x {0.0 1.0 18 ------- null}
h -t 0.322517333333333 -s 0 -d 1 -p tcp -e 1540 -c 0 -i 33 -a 0 -x {0.0 1.0 -1 ------- null}
r -t 0.322928 -s 1 -d 0 -p ack -e 40 -c 0 -i 26 -a 0 -x {1.0 0.0 11 ------- null}
+ -t 0.322928 -s 0 -d 1 -p tcp -e 1540 -c 0 -i 38 -a 0 -x {0.0 1.0 23 ------- null}
+ -t 0.322928 -s 0 -d 1 -p tcp -e 1540 -c 0 -i 39 -a 0 -x {0.0 1.0 24 ------- null}
- -t 0.322928 -s 0 -d 1 -p tcp -e 1540 -c 0 -i 34 -a 0 -x {0.0 1.0 19 ------- null}
h -t 0.322928 -s 0 -d 1 -p tcp -e 1540 -c 0 -i 34 -a 0 -x {0.0 1.0 -1 ------- null}
r -t 0.323338666666667 -s 1 -d 0 -p ack -e 40 -c 0 -i 27 -a 0 -x {1.0 0.0 12 ------- null}
+ -t 0.323338666666667 -s 0 -d 1 -p tcp -e 1540 -c 0 -i 40 -a 0 -x {0.0 1.0 25 ------- null}
+ -t 0.323338666666667 -s 0 -d 1 -p tcp -e 1540 -c 0 -i 41 -a 0 -x {0.0 1.0 26 ------- null}
- -t 0.323338666666667 -s 0 -d 1 -p tcp -e 1540 -c 0 -i 35 -a 0 -x {0.0 1.0 20 ------- null}
h -t 0.323338666666667 -s 0 -d 1 -p tcp -e 1540 -c 0 -i 35 -a 0 -x {0.0 1.0 -1 ------- null}
r -t 0.323749333333333 -s 1 -d 0 -p ack -e 40 -c 0 -i 28 -a 0 -x {1.0 0.0 13 ------- null}
+ -t 0.323749333333333 -s 0 -d 1 -p tcp -e 1540 -c 0 -i 42 -a 0 -x {0.0 1.0 27 ------- null}
+ -t 0.323749333333333 -s 0 -d 1 -p tcp -e 1540 -c 0 -i 43 -a 0 -x {0.0 1.0 28 ------- null}
- -t 0.323749333333333 -s 0 -d 1 -p tcp -e 1540 -c 0 -i 36 -a 0 -x {0.0 1.0 21 ------- null}
h -t 0.323749333333333 -s 0 -d 1 -p tcp -e 1540 -c 0 -i 36 -a 0 -x {0.0 1.0 -1 ------- null}
r -t 0.32416 -s 1 -d 0 -p ack -e 40 -c 0 -i 29 -a 0 -x {1.0 0.0 14 ------- null}
+ -t 0.32416 -s 0 -d 1 -p tcp -e 1540 -c 0 -i 44 -a 0 -x {0.0 1.0 29 ------- null}
+ -t 0.32416 -s 0 -d 1 -p tcp -e 1540 -c 0 -i 45 -a 0 -x {0.0 1.0 30 ------- null}
- -t 0.32416 -s 0 -d 1 -p tcp -e 1540 -c 0 -i 37 -a 0 -x {0.0 1.0 22 ------- null}
h -t 0.32416 -s 0 -d 1 -p tcp -e 1540 -c 0 -i 37 -a 0 -x {0.0 1.0 -1 ------- null}
- -t 0.324570666666667 -s 0 -d 1 -p tcp -e 1540 -c 0 -i 38 -a 0 -x {0.0 1.0 23 ------- null}
h -t 0.324570666666667 -s 0 -d 1 -p tcp -e 1540 -c 0 -i 38 -a 0 -x {0.0 1.0 -1 ------- null}
- -t 0.324981333333333 -s 0 -d 1 -p tcp -e 1540 -c 0 -i 39 -a 0 -x {0.0 1.0 24 ------- null}
h -t 0.324981333333333 -s 0 -d 1 -p tcp -e 1540 -c 0 -i 39 -a 0 -x {0.0 1.0 -1 ------- null}
- -t 0.325392 -s 0 -d 1 -p tcp -e 1540 -c 0 -i 40 -a 0 -x {0.0 1.0 25 ------- null}
h -t 0.325392 -s 0 -d 1 -p tcp -e 1540 -c 0 -i 40 -a 0 -x {0.0 1.0 -1 ------- null}
- -t 0.325802666666667 -s 0 -d 1 -p tcp -e 1540 -c 0 -i 41 -a 0 -x {0.0 1.0 26 ------- null}
h -t 0.325802666666667 -s 0 -d 1 -p tcp -e 1540 -c 0 -i 41 -a 0 -x {0.0 1.0 -1 ------- null}
- -t 0.326213333333333 -s 0 -d 1 -p tcp -e 1540 -c 0 -i 42 -a 0 -x {0.0 1.0 27 ------- null}
h -t 0.326213333333333 -s 0 -d 1 -p tcp -e 1540 -c 0 -i 42 -a 0 -x {0.0 1.0 -1 ------- null}
- -t 0.326624 -s 0 -d 1 -p tcp -e 1540 -c 0 -i 43 -a 0 -x {0.0 1.0 28 ------- null}
h -t 0.326624 -s 0 -d 1 -p tcp -e 1540 -c 0 -i 43 -a 0 -x {0.0 1.0 -1 ------- null}
- -t 0.327034666666667 -s 0 -d 1 -p tcp -e 1540 -c 0 -i 44 -a 0 -x {0.0 1.0 29 ------- null}
h -t 0.327034666666667 -s 0 -d 1 -p tcp -e 1540 -c 0 -i 44 -a 0 -x {0.0 1.0 -1 ------- null}
- -t 0.327445333333333 -s 0 -d 1 -p tcp -e 1540 -c 0 -i 45 -a 0 -x {0.0 1.0 30 ------- null}
h -t 0.327445333333333 -s 0 -d 1 -p tcp -e 1540 -c 0 -i 45 -a 0 -x {0.0 1.0 -1 ------- null}
r -t 0.361696 -s 0 -d 1 -p tcp -e 1540 -c 0 -i 30 -a 0 -x {0.0 1.0 15 ------- null}
+ -t 0.361696 -s 1 -d 0 -p ack -e 40 -c 0 -i 46 -a 0 -x {1.0 0.0 15 ------- null}
- -t 0.361696 -s 1 -d 0 -p ack -e 40 -c 0 -i 46 -a 0 -x {1.0 0.0 15 ------- null}
h -t 0.361696 -s 1 -d 0 -p ack -e 40 -c 0 -i 46 -a 0 -x {1.0 0.0 -1 ------- null}
r -t 0.362106666666667 -s 0 -d 1 -p tcp -e 1540 -c 0 -i 31 -a 0 -x {0.0 1.0 16 ------- null}
+ -t 0.362106666666667 -s 1 -d 0 -p ack -e 40 -c 0 -i 47 -a 0 -x {1.0 0.0 16 ------- null}
- -t 0.362106666666667 -s 1 -d 0 -p ack -e 40 -c 0 -i 47 -a 0 -x {1.0 0.0 16 ------- null}
h -t 0.362106666666667 -s 1 -d 0 -p ack -e 40 -c 0 -i 47 -a 0 -x {1.0 0.0 -1 ------- null}
r -t 0.362517333333333 -s 0 -d 1 -p tcp -e 1540 -c 0 -i 32 -a 0 -x {0.0 1.0 17 ------- null}
+ -t 0.362517333333333 -s 1 -d 0 -p ack -e 40 -c 0 -i 48 -a 0 -x {1.0 0.0 17 ------- null}
- -t 0.362517333333333 -s 1 -d 0 -p ack -e 40 -c 0 -i 48 -a 0 -x {1.0 0.0 17 ------- null}
h -t 0.362517333333333 -s 1 -d 0 -p ack -e 40 -c 0 -i 48 -a 0 -x {1.0 0.0 -1 ------- null}
r -t 0.362928 -s 0 -d 1 -p tcp -e 1540 -c 0 -i 33 -a 0 -x {0.0 1.0 18 ------- null}
+ -t 0.362928 -s 1 -d 0 -p ack -e 40 -c 0 -i 49 -a 0 -x {1.0 0.0 18 ------- null}
- -t 0.362928 -s 1 -d 0 -p ack -e 40 -c 0 -i 49 -a 0 -x {1.0 0.0 18 ------- null}
h -t 0.362928 -s 1 -d 0 -p ack -e 40 -c 0 -i 49 -a 0 -x {1.0 0.0 -1 ------- null}
r -t 0.363338666666667 -s 0 -d 1 -p tcp -e 1540 -c 0 -i 34 -a 0 -x {0.0 1.0 19 ------- null}
+ -t 0.363338666666667 -s 1 -d 0 -p ack -e 40 -c 0 -i 50 -a 0 -x {1.0 0.0 19 ------- null}
- -t 0.363338666666667 -s 1 -d 0 -p ack -e 40 -c 0 -i 50 -a 0 -x {1.0 0.0 19 ------- null}
h -t 0.363338666666667 -s 1 -d 0 -p ack -e 40 -c 0 -i 50 -a 0 -x {1.0 0.0 -1 ------- null}
r -t 0.363749333333333 -s 0 -d 1 -p tcp -e 1540 -c 0 -i 35 -a 0 -x {0.0 1.0 20 ------- null}
+ -t 0.363749333333333 -s 1 -d 0 -p ack -e 40 -c 0 -i 51 -a 0 -x {1.0 0.0 20 ------- null}
- -t 0.363749333333333 -s 1 -d 0 -p ack -e 40 -c 0 -i 51 -a 0 -x {1.0 0.0 20 ------- null}
h -t 0.363749333333333 -s 1 -d 0 -p ack -e 40 -c 0 -i 51 -a 0 -x {1.0 0.0 -1 ------- null}
r -t 0.36416 -s 0 -d 1 -p tcp -e 1540 -c 0 -i 36 -a 0 -x {0.0 1.0 21 ------- null}
+ -t 0.36416 -s 1 -d 0 -p ack -e 40 -c 0 -i 52 -a 0 -x {1.0 0.0 21 ------- null}
- -t 0.36416 -s 1 -d 0 -p ack -e 40 -c 0 -i 52 -a 0 -x {1.0 0.0 21 ------- null}
h -t 0.36416 -s 1 -d 0 -p ack -e 40 -c 0 -i 52 -a 0 -x {1.0 0.0 -1 ------- null}
r -t 0.364570666666667 -s 0 -d 1 -p tcp -e 1540 -c 0 -i 37 -a 0 -x {0.0 1.0 22 ------- null}
+ -t 0.364570666666667 -s 1 -d 0 -p ack -e 40 -c 0 -i 53 -a 0 -x {1.0 0.0 22 ------- null}
- -t 0.364570666666667 -s 1 -d 0 -p ack -e 40 -c 0 -i 53 -a 0 -x {1.0 0.0 22 ------- null}
h -t 0.364570666666667 -s 1 -d 0 -p ack -e 40 -c 0 -i 53 -a 0 -x {1.0 0.0 -1 ------- null}
r -t 0.364981333333333 -s 0 -d 1 -p tcp -e 1540 -c 0 -i 38 -a 0 -x {0.0 1.0 23 ------- null}
+ -t 0.364981333333333 -s 1 -d 0 -p ack -e 40 -c 0 -i 54 -a 0 -x {1.0 0.0 23 ------- null}
- -t 0.364981333333333 -s 1 -d 0 -p ack -e 40 -c 0 -i 54 -a 0 -x {1.0 0.0 23 ------- null}
h -t 0.364981333333333 -s 1 -d 0 -p ack -e 40 -c 0 -i 54 -a 0 -x {1.0 0.0 -1 ------- null}
r -t 0.365392 -s 0 -d 1 -p tcp -e 1540 -c 0 -i 39 -a 0 -x {0.0 1.0 24 ------- null}
+ -t 0.365392 -s 1 -d 0 -p ack -e 40 -c 0 -i 55 -a 0 -x {1.0 0.0 24 ------- null}
- -t 0.365392 -s 1 -d 0 -p ack -e 40 -c 0 -i 55 -a 0 -x {1.0 0.0 24 ------- null}
h -t 0.365392 -s 1 -d 0 -p ack -e 40 -c 0 -i 55 -a 0 -x {1.0 0.0 -1 ------- null}
r -t 0.365802666666667 -s 0 -d 1 -p tcp -e 1540 -c 0 -i 40 -a 0 -x {0.0 1.0 25 ------- null}
+ -t 0.365802666666667 -s 1 -d 0 -p ack -e 40 -c 0 -i 56 -a 0 -x {1.0 0.0 25 ------- null}
- -t 0.365802666666667 -s 1 -d 0 -p ack -e 40 -c 0 -i 56 -a 0 -x {1.0 0.0 25 ------- null}
h -t 0.365802666666667 -s 1 -d 0 -p ack -e 40 -c 0 -i 56 -a 0 -x {1.0 0.0 -1 ------- null}
r -t 0.366213333333333 -s 0 -d 1 -p tcp -e 1540 -c 0 -i 41 -a 0 -x {0.0 1.0 26 ------- null}
+ -t 0.366213333333333 -s 1 -d 0 -p ack -e 40 -c 0 -i 57 -a 0 -x {1.0 0.0 26 ------- null}
- -t 0.366213333333333 -s 1 -d 0 -p ack -e 40 -c 0 -i 57 -a 0 -x {1.0 0.0 26 ------- null}
h -t 0.366213333333333 -s 1 -d 0 -p ack -e 40 -c 0 -i 57 -a 0 -x {1.0 0.0 -1 ------- null}
r -t 0.366624 -s 0 -d 1 -p tcp -e 1540 -c 0 -i 42 -a 0 -x {0.0 1.0 27 ------- null}
+ -t 0.366624 -s 1 -d 0 -p ack -e 40 -c 0 -i 58 -a 0 -x {1.0 0.0 27 ------- null}
- -t 0.366624 -s 1 -d 0 -p ack -e 40 -c 0 -i 58 -a 0 -x {1.0 0.0 27 ------- null}
h -t 0.366624 -s 1 -d 0 -p ack -e 40 -c 0 -i 58 -a 0 -x {1.0 0.0 -1 ------- null}
r -t 0.367034666666667 -s 0 -d 1 -p tcp -e 1540 -c 0 -i 43 -a 0 -x {0.0 1.0 28 ------- null}
+ -t 0.367034666666667 -s 1 -d 0 -p ack -e 40 -c 0 -i 59 -a 0 -x {1.0 0.0 28 ------- null}
- -t 0.367034666666667 -s 1 -d 0 -p ack -e 40 -c 0 -i 59 -a 0 -x {1.0 0.0 28 ------- null}
h -t 0.367034666666667 -s 1 -d 0 -p ack -e 40 -c 0 -i 59 -a 0 -x {1.0 0.0 -1 ------- null}
r -t 0.367445333333333 -s 0 -d 1 -p tcp -e 1540 -c 0 -i 44 -a 0 -x {0.0 1.0 29 ------- null}
+ -t 0.367445333333333 -s 1 -d 0 -p ack -e 40 -c 0 -i 60 -a 0 -x {1.0 0.0 29 ------- null}
- -t 0.367445333333333 -s 1 -d 0 -p ack -e 40 -c 0 -i 60 -a 0 -x {1.0 0.0 29 ------- null}
h -t 0.367445333333333 -s 1 -d 0 -p ack -e 40 -c 0 -i 60 -a 0 -x {1.0 0.0 -1 ------- null}
r -t 0.367856 -s 0 -d 1 -p tcp -e 1540 -c 0 -i 45 -a 0 -x {0.0 1.0 30 ------- null}
+ -t 0.367856 -s 1 -d 0 -p ack -e 40 -c 0 -i 61 -a 0 -x {1.0 0.0 30 ------- null}
- -t 0.367856 -s 1 -d 0 -p ack -e 40 -c 0 -i 61 -a 0 -x {1.0 0.0 30 ------- null}
h -t 0.367856 -s 1 -d 0 -p ack -e 40 -c 0 -i 61 -a 0 -x {1.0 0.0 -1 ------- null}
r -t 0.401706666666667 -s 1 -d 0 -p ack -e 40 -c 0 -i 46 -a 0 -x {1.0 0.0 15 ------- null}
+ -t 0.401706666666667 -s 0 -d 1 -p tcp -e 1540 -c 0 -i 62 -a 0 -x {0.0 1.0 31 ------- null}
- -t 0.401706666666667 -s 0 -d 1 -p tcp -e 1540 -c 0 -i 62 -a 0 -x {0.0 1.0 31 ------- null}
h -t 0.401706666666667 -s 0 -d 1 -p tcp -e 1540 -c 0 -i 62 -a 0 -x {0.0 1.0 -1 ------- null}
+ -t 0.401706666666667 -s 0 -d 1 -p tcp -e 1540 -c 0 -i 63 -a 0 -x {0.0 1.0 32 ------- null}
r -t 0.402117333333333 -s 1 -d 0 -p ack -e 40 -c 0 -i 47 -a 0 -x {1.0 0.0 16 ------- null}
+ -t 0.402117333333333 -s 0 -d 1 -p tcp -e 1540 -c 0 -i 64 -a 0 -x {0.0 1.0 33 ------- null}
+ -t 0.402117333333333 -s 0 -d 1 -p tcp -e 1540 -c 0 -i 65 -a 0 -x {0.0 1.0 34 ------- null}
- -t 0.402117333333333 -s 0 -d 1 -p tcp -e 1540 -c 0 -i 63 -a 0 -x {0.0 1.0 32 ------- null}
h -t 0.402117333333333 -s 0 -d 1 -p tcp -e 1540 -c 0 -i 63 -a 0 -x {0.0 1.0 -1 ------- null}
r -t 0.402528 -s 1 -d 0 -p ack -e 40 -c 0 -i 48 -a 0 -x {1.0 0.0 17 ------- null}
+ -t 0.402528 -s 0 -d 1 -p tcp -e 1540 -c 0 -i 66 -a 0 -x {0.0 1.0 35 ------- null}
+ -t 0.402528 -s 0 -d 1 -p tcp -e 1540 -c 0 -i 67 -a 0 -x {0.0 1.0 36 ------- null}
- -t 0.402528 -s 0 -d 1 -p tcp -e 1540 -c 0 -i 64 -a 0 -x {0.0 1.0 33 ------- null}
h -t 0.402528 -s 0 -d 1 -p tcp -e 1540 -c 0 -i 64 -a 0 -x {0.0 1.0 -1 ------- null}
r -t 0.402938666666667 -s 1 -d 0 -p ack -e 40 -c 0 -i 49 -a 0 -x {1.0 0.0 18 ------- null}
+ -t 0.402938666666667 -s 0 -d 1 -p tcp -e 1540 -c 0 -i 68 -a 0 -x {0.0 1.0 37 ------- null}
+ -t 0.402938666666667 -s 0 -d 1 -p tcp -e 1540 -c 0 -i 69 -a 0 -x {0.0 1.0 38 ------- null}
- -t 0.402938666666667 -s 0 -d 1 -p tcp -e 1540 -c 0 -i 65 -a 0 -x {0.0 1.0 34 ------- null}
h -t 0.402938666666667 -s 0 -d 1 -p tcp -e 1540 -c 0 -i 65 -a 0 -x {0.0 1.0 -1 ------- null}
r -t 0.403349333333333 -s 1 -d 0 -p ack -e 40 -c 0 -i 50 -a 0 -x {1.0 0.0 19 ------- null}
+ -t 0.403349333333333 -s 0 -d 1 -p tcp -e 1540 -c 0 -i 70 -a 0 -x {0.0 1.0 39 ------- null}
- -t 0.403349333333333 -s 0 -d 1 -p tcp -e 1540 -c 0 -i 66 -a 0 -x {0.0 1.0 35 ------- null}
h -t 0.403349333333333 -s 0 -d 1 -p tcp -e 1540 -c 0 -i 66 -a 0 -x {0.0 1.0 -1 ------- null}
r -t 0.40376 -s 1 -d 0 -p ack -e 40 -c 0 -i 51 -a 0 -x {1.0 0.0 20 ------- null}
+ -t 0.40376 -s 0 -d 1 -p tcp -e 1540 -c 0 -i 71 -a 0 -x {0.0 1.0 40 ------- null}
- -t 0.40376 -s 0 -d 1 -p tcp -e 1540 -c 0 -i 67 -a 0 -x {0.0 1.0 36 ------- null}
h -t 0.40376 -s 0 -d 1 -p tcp -e 1540 -c 0 -i 67 -a 0 -x {0.0 1.0 -1 ------- null}
r -t 0.404170666666667 -s 1 -d 0 -p ack -e 40 -c 0 -i 52 -a 0 -x {1.0 0.0 21 ------- null}
+ -t 0.404170666666667 -s 0 -d 1 -p tcp -e 1540 -c 0 -i 72 -a 0 -x {0.0 1.0 41 ------- null}
- -t 0.404170666666667 -s 0 -d 1 -p tcp -e 1540 -c 0 -i 68 -a 0 -x {0.0 1.0 37 ------- null}
h -t 0.404170666666667 -s 0 -d 1 -p tcp -e 1540 -c 0 -i 68 -a 0 -x {0.0 1.0 -1 ------- null}
r -t 0.404581333333333 -s 1 -d 0 -p ack -e 40 -c 0 -i 53 -a 0 -x {1.0 0.0 22 ------- null}
+ -t 0.404581333333333 -s 0 -d 1 -p tcp -e 1540 -c 0 -i 73 -a 0 -x {0.0 1.0 42 ------- null}
- -t 0.404581333333333 -s 0 -d 1 -p tcp -e 1540 -c 0 -i 69 -a 0 -x {0.0 1.0 38 ------- null}
h -t 0.404581333333333 -s 0 -d 1 -p tcp -e 1540 -c 0 -i 69 -a 0 -x {0.0 1.0 -1 ------- null}
r -t 0.404992 -s 1 -d 0 -p ack -e 40 -c 0 -i 54 -a 0 -x {1.0 0.0 23 ------- null}
+ -t 0.404992 -s 0 -d 1 -p tcp -e 1540 -c 0 -i 74 -a 0 -x {0.0 1.0 43 ------- null}
- -t 0.404992 -s 0 -d 1 -p tcp -e 1540 -c 0 -i 70 -a 0 -x {0.0 1.0 39 ------- null}
h -t 0.404992 -s 0 -d 1 -p tcp -e 1540 -c 0 -i 70 -a 0 -x {0.0 1.0 -1 ------- null}
r -t 0.405402666666667 -s 1 -d 0 -p ack -e 40 -c 0 -i 55 -a 0 -x {1.0 0.0 24 ------- null}
+ -t 0.405402666666667 -s 0 -d 1 -p tcp -e 1540 -c 0 -i 75 -a 0 -x {0.0 1.0 44 ------- null}
- -t 0.405402666666667 -s 0 -d 1 -p tcp -e 1540 -c 0 -i 71 -a 0 -x {0.0 1.0 40 ------- null}
h -t 0.405402666666667 -s 0 -d 1 -p tcp -e 1540 -c 0 -i 71 -a 0 -x {0.0 1.0 -1 ------- null}
r -t 0.405813333333333 -s 1 -d 0 -p ack -e 40 -c 0 -i 56 -a 0 -x {1.0 0.0 25 ------- null}
+ -t 0.405813333333333 -s 0 -d 1 -p tcp -e 1540 -c 0 -i 76 -a 0 -x {0.0 1.0 45 ------- null}
- -t 0.405813333333333 -s 0 -d 1 -p tcp -e 1540 -c 0 -i 72 -a 0 -x {0.0 1.0 41 ------- null}
h -t 0.405813333333333 -s 0 -d 1 -p tcp -e 1540 -c 0 -i 72 -a 0 -x {0.0 1.0 -1 ------- null}
r -t 0.406224 -s 1 -d 0 -p ack -e 40 -c 0 -i 57 -a 0 -x {1.0 0.0 26 ------- null}
+ -t 0.406224 -s 0 -d 1 -p tcp -e 1540 -c 0 -i 77 -a 0 -x {0.0 1.0 46 ------- null}
- -t 0.406224 -s 0 -d 1 -p tcp -e 1540 -c 0 -i 73 -a 0 -x {0.0 1.0 42 ------- null}
h -t 0.406224 -s 0 -d 1 -p tcp -e 1540 -c 0 -i 73 -a 0 -x {0.0 1.0 -1 ------- null}
r -t 0.406634666666667 -s 1 -d 0 -p ack -e 40 -c 0 -i 58 -a 0 -x {1.0 0.0 27 ------- null}
+ -t 0.406634666666667 -s 0 -d 1 -p tcp -e 1540 -c 0 -i 78 -a 0 -x {0.0 1.0 47 ------- null}
- -t 0.406634666666667 -s 0 -d 1 -p tcp -e 1540 -c 0 -i 74 -a 0 -x {0.0 1.0 43 ------- null}
h -t 0.406634666666667 -s 0 -d 1 -p tcp -e 1540 -c 0 -i 74 -a 0 -x {0.0 1.0 -1 ------- null}
r -t 0.407045333333333 -s 1 -d 0 -p ack -e 40 -c 0 -i 59 -a 0 -x {1.0 0.0 28 ------- null}
+ -t 0.407045333333333 -s 0 -d 1 -p tcp -e 1540 -c 0 -i 79 -a 0 -x {0.0 1.0 48 ------- null}
- -t 0.407045333333333 -s 0 -d 1 -p tcp -e 1540 -c 0 -i 75 -a 0 -x {0.0 1.0 44 ------- null}
h -t 0.407045333333333 -s 0 -d 1 -p tcp -e 1540 -c 0 -i 75 -a 0 -x {0.0 1.0 -1 ------- null}
r -t 0.407456 -s 1 -d 0 -p ack -e 40 -c 0 -i 60 -a 0 -x {1.0 0.0 29 ------- null}
+ -t 0.407456 -s 0 -d 1 -p tcp -e 1540 -c 0 -i 80 -a 0 -x {0.0 1.0 49 ------- null}
- -t 0.407456 -s 0 -d 1 -p tcp -e 1540 -c 0 -i 76 -a 0 -x {0.0 1.0 45 ------- null}
h -t 0.407456 -s 0 -d 1 -p tcp -e 1540 -c 0 -i 76 -a 0 -x {0.0 1.0 -1 ------- null}
r -t 0.407866666666667 -s 1 -d 0 -p ack -e 40 -c 0 -i 61 -a 0 -x {1.0 0.0 30 ------- null}
+ -t 0.407866666666667 -s 0 -d 1 -p tcp -e 1540 -c 0 -i 81 -a 0 -x {0.0 1.0 50 ------- null}
- -t 0.407866666666667 -s 0 -d 1 -p tcp -e 1540 -c 0 -i 77 -a 0 -x {0.0 1.0 46 ------- null}
h -t 0.407866666666667 -s 0 -d 1 -p tcp -e 1540 -c 0 -i 77 -a 0 -x {0.0 1.0 -1 ------- null}
- -t 0.408277333333333 -s 0 -d 1 -p tcp -e 1540 -c 0 -i 78 -a 0 -x {0.0 1.0 47 ------- null}
h -t 0.408277333333333 -s 0 -d 1 -p tcp -e 1540 -c 0 -i 78 -a 0 -x {0.0 1.0 -1 ------- null}
- -t 0.408688 -s 0 -d 1 -p tcp -e 1540 -c 0 -i 79 -a 0 -x {0.0 1.0 48 ------- null}
h -t 0.408688 -s 0 -d 1 -p tcp -e 1540 -c 0 -i 79 -a 0 -x {0.0 1.0 -1 ------- null}
- -t 0.409098666666667 -s 0 -d 1 -p tcp -e 1540 -c 0 -i 80 -a 0 -x {0.0 1.0 49 ------- null}
h -t 0.409098666666667 -s 0 -d 1 -p tcp -e 1540 -c 0 -i 80 -a 0 -x {0.0 1.0 -1 ------- null}
- -t 0.409509333333333 -s 0 -d 1 -p tcp -e 1540 -c 0 -i 81 -a 0 -x {0.0 1.0 50 ------- null}
h -t 0.409509333333333 -s 0 -d 1 -p tcp -e 1540 -c 0 -i 81 -a 0 -x {0.0 1.0 -1 ------- null}
r -t 0.442117333333333 -s 0 -d 1 -p tcp -e 1540 -c 0 -i 62 -a 0 -x {0.0 1.0 31 ------- null}
+ -t 0.442117333333333 -s 1 -d 0 -p ack -e 40 -c 0 -i 82 -a 0 -x {1.0 0.0 31 ------- null}
- -t 0.442117333333333 -s 1 -d 0 -p ack -e 40 -c 0 -i 82 -a 0 -x {1.0 0.0 31 ------- null}
h -t 0.442117333333333 -s 1 -d 0 -p ack -e 40 -c 0 -i 82 -a 0 -x {1.0 0.0 -1 ------- null}
r -t 0.442528 -s 0 -d 1 -p tcp -e 1540 -c 0 -i 63 -a 0 -x {0.0 1.0 32 ------- null}
+ -t 0.442528 -s 1 -d 0 -p ack -e 40 -c 0 -i 83 -a 0 -x {1.0 0.0 32 ------- null}
- -t 0.442528 -s 1 -d 0 -p ack -e 40 -c 0 -i 83 -a 0 -x {1.0 0.0 32 ------- null}
h -t 0.442528 -s 1 -d 0 -p ack -e 40 -c 0 -i 83 -a 0 -x {1.0 0.0 -1 ------- null}
r -t 0.442938666666667 -s 0 -d 1 -p tcp -e 1540 -c 0 -i 64 -a 0 -x {0.0 1.0 33 ------- null}
+ -t 0.442938666666667 -s 1 -d 0 -p ack -e 40 -c 0 -i 84 -a 0 -x {1.0 0.0 33 ------- null}
- -t 0.442938666666667 -s 1 -d 0 -p ack -e 40 -c 0 -i 84 -a 0 -x {1.0 0.0 33 ------- null}
h -t 0.442938666666667 -s 1 -d 0 -p ack -e 40 -c 0 -i 84 -a 0 -x {1.0 0.0 -1 ------- null}
r -t 0.443349333333333 -s 0 -d 1 -p tcp -e 1540 -c 0 -i 65 -a 0 -x {0.0 1.0 34 ------- null}
+ -t 0.443349333333333 -s 1 -d 0 -p ack -e 40 -c 0 -i 85 -a 0 -x {1.0 0.0 34 ------- null}
- -t 0.443349333333333 -s 1 -d 0 -p ack -e 40 -c 0 -i 85 -a 0 -x {1.0 0.0 34 ------- null}
h -t 0.443349333333333 -s 1 -d 0 -p ack -e 40 -c 0 -i 85 -a 0 -x {1.0 0.0 -1 ------- null}
r -t 0.44376 -s 0 -d 1 -p tcp -e 1540 -c 0 -i 66 -a 0 -x {0.0 1.0 35 ------- null}
+ -t 0.44376 -s 1 -d 0 -p ack -e 40 -c 0 -i 86 -a 0 -x {1.0 0.0 35 ------- null}
- -t 0.44376 -s 1 -d 0 -p ack -e 40 -c 0 -i 86 -a 0 -x {1.0 0.0 35 ------- null}
h -t 0.44376 -s 1 -d 0 -p ack -e 40 -c 0 -i 86 -a 0 -x {1.0 0.0 -1 ------- null}
r -t 0.444170666666667 -s 0 -d 1 -p tcp -e 1540 -c 0 -i 67 -a 0 -x {0.0 1.0 36 ------- null}
+ -t 0.444170666666667 -s 1 -d 0 -p ack -e 40 -c 0 -i 87 -a 0 -x {1.0 0.0 36 ------- null}
- -t 0.444170666666667 -s 1 -d 0 -p ack -e 40 -c 0 -i 87 -a 0 -x {1.0 0.0 36 ------- null}
h -t 0.444170666666667 -s 1 -d 0 -p ack -e 40 -c 0 -i 87 -a 0 -x {1.0 0.0 -1 ------- null}
r -t 0.444581333333333 -s 0 -d 1 -p tcp -e 1540 -c 0 -i 68 -a 0 -x {0.0 1.0 37 ------- null}
+ -t 0.444581333333333 -s 1 -d 0 -p ack -e 40 -c 0 -i 88 -a 0 -x {1.0 0.0 37 ------- null}