+ 0 0 1 tcp 40 ------- 0 0.0 1.0 0 0
- 0 0 1 tcp 40 ------- 0 0.0 1.0 0 0
0.000 1
0.001 1
0.002 1
0.003 1
0.004 1
0.005 1
0.006 1
0.007 1
0.008 1
0.009 1
0.010 1
0.011 1
0.012 1
0.013 1
0.014 1
0.015 1
0.016 1
0.017 1
0.018 1
0.019 1
0.020 1
0.021 1
0.022 1
0.023 1
0.024 1
0.025 1
0.026 1
0.027 1
0.028 1
0.029 1
0.030 1
r 0.030032 0 1 tcp 40 ------- 0 0.0 1.0 0 0
+ 0.030032 1 0 ack 40 ------- 0 1.0 0.0 0 1
- 0.030032 1 0 ack 40 ------- 0 1.0 0.0 0 1
0.031 1
0.032 1
0.033 1
0.034 1
0.035 1
0.036 1
0.037 1
0.038 1
0.039 1
0.040 1
0.041 1
0.042 1
0.043 1
0.044 1
0.045 1
0.046 1
0.047 1
0.048 1
0.049 1
0.050 1
0.051 1
0.052 1
0.053 1
0.054 1
0.055 1
0.056 1
0.057 1
0.058 1
0.059 1
0.060 1
r 0.060064 1 0 ack 40 ------- 0 1.0 0.0 0 1
+ 0.060064 0 1 tcp 1540 ------- 0 0.0 1.0 1 2
- 0.060064 0 1 tcp 1540 ------- 0 0.0 1.0 1 2
+ 0.060064 0 1 tcp 1540 ------- 0 0.0 1.0 2 3
0.061 2
- 0.061296 0 1 tcp 1540 ------- 0 0.0 1.0 2 3
0.062 2
0.063 2
0.064 2
0.065 2
0.066 2
0.067 2
0.068 2
0.069 2
0.070 2
0.071 2
0.072 2
0.073 2
0.074 2
0.075 2
0.076 2
0.077 2
0.078 2
0.079 2
0.080 2
0.081 2
0.082 2
0.083 2
0.084 2
0.085 2
0.086 2
0.087 2
0.088 2
0.089 2
0.090 2
0.091 2
r 0.091296 0 1 tcp 1540 ------- 0 0.0 1.0 1 2
+ 0.091296 1 0 ack 40 ------- 0 1.0 0.0 1 4
- 0.091296 1 0 ack 40 ------- 0 1.0 0.0 1 4
0.092 2
r 0.092528 0 1 tcp 1540 ------- 0 0.0 1.0 2 3
+ 0.092528 1 0 ack 40 ------- 0 1.0 0.0 2 5
- 0.092528 1 0 ack 40 ------- 0 1.0 0.0 2 5
0.093 2
0.094 2
0.095 2
0.096 2
0.097 2
0.098 2
0.099 2
0.100 2
0.101 2
0.102 2
0.103 2
0.104 2
0.105 2
0.106 2
0.107 2
0.108 2
0.109 2
0.110 2
0.111 2
0.112 2
0.113 2
0.114 2
0.115 2
0.116 2
0.117 2
0.118 2
0.119 2
0.120 2
0.121 2
r 0.121328 1 0 ack 40 ------- 0 1.0 0.0 1 4
+ 0.121328 0 1 tcp 1540 ------- 0 0.0 1.0 3 6
- 0.121328 0 1 tcp 1540 ------- 0 0.0 1.0 3 6
+ 0.121328 0 1 tcp 1540 ------- 0 0.0 1.0 4 7
0.122 3
r 0.12256 1 0 ack 40 ------- 0 1.0 0.0 2 5
+ 0.12256 0 1 tcp 1540 ------- 0 0.0 1.0 5 8
+ 0.12256 0 1 tcp 1540 ------- 0 0.0 1.0 6 9
- 0.12256 0 1 tcp 1540 ------- 0 0.0 1.0 4 7
0.123 4
- 0.123792 0 1 tcp 1540 ------- 0 0.0 1.0 5 8
0.124 4
0.125 4
- 0.125024 0 1 tcp 1540 ------- 0 0.0 1.0 6 9
0.126 4
0.127 4
0.128 4
0.129 4
0.130 4
0.131 4
0.132 4
0.133 4
0.134 4
0.135 4
0.136 4
0.137 4
0.138 4
0.139 4
0.140 4
0.141 4
0.142 4
0.143 4
0.144 4
0.145 4
0.146 4
0.147 4
0.148 4
0.149 4
0.150 4
0.151 4
0.152 4
r 0.15256 0 1 tcp 1540 ------- 0 0.0 1.0 3 6
+ 0.15256 1 0 ack 40 ------- 0 1.0 0.0 3 10
- 0.15256 1 0 ack 40 ------- 0 1.0 0.0 3 10
0.153 4
r 0.153792 0 1 tcp 1540 ------- 0 0.0 1.0 4 7
+ 0.153792 1 0 ack 40 ------- 0 1.0 0.0 4 11
- 0.153792 1 0 ack 40 ------- 0 1.0 0.0 4 11
0.154 4
0.155 4
r 0.155024 0 1 tcp 1540 ------- 0 0.0 1.0 5 8
+ 0.155024 1 0 ack 40 ------- 0 1.0 0.0 5 12
- 0.155024 1 0 ack 40 ------- 0 1.0 0.0 5 12
0.156 4
r 0.156256 0 1 tcp 1540 ------- 0 0.0 1.0 6 9
+ 0.156256 1 0 ack 40 ------- 0 1.0 0.0 6 13
- 0.156256 1 0 ack 40 ------- 0 1.0 0.0 6 13
0.157 4
0.158 4
0.159 4
0.160 4
0.161 4
0.162 4
0.163 4
0.164 4
0.165 4
0.166 4
0.167 4
0.168 4
0.169 4
0.170 4
0.171 4
0.172 4
0.173 4
0.174 4
0.175 4
0.176 4
0.177 4
0.178 4
0.179 4
0.180 4
0.181 4
0.182 4
r 0.182592 1 0 ack 40 ------- 0 1.0 0.0 3 10
+ 0.182592 0 1 tcp 1540 ------- 0 0.0 1.0 7 14
- 0.182592 0 1 tcp 1540 ------- 0 0.0 1.0 7 14
+ 0.182592 0 1 tcp 1540 ------- 0 0.0 1.0 8 15
0.183 5
r 0.183824 1 0 ack 40 ------- 0 1.0 0.0 4 11
+ 0.183824 0 1 tcp 1540 ------- 0 0.0 1.0 9 16
+ 0.183824 0 1 tcp 1540 ------- 0 0.0 1.0 10 17
- 0.183824 0 1 tcp 1540 ------- 0 0.0 1.0 8 15
0.184 6
0.185 6
r 0.185056 1 0 ack 40 ------- 0 1.0 0.0 5 12
+ 0.185056 0 1 tcp 1540 ------- 0 0.0 1.0 11 18
+ 0.185056 0 1 tcp 1540 ------- 0 0.0 1.0 12 19
- 0.185056 0 1 tcp 1540 ------- 0 0.0 1.0 9 16
0.186 7
r 0.186288 1 0 ack 40 ------- 0 1.0 0.0 6 13
+ 0.186288 0 1 tcp 1540 ------- 0 0.0 1.0 13 20
+ 0.186288 0 1 tcp 1540 ------- 0 0.0 1.0 14 21
- 0.186288 0 1 tcp 1540 ------- 0 0.0 1.0 10 17
0.187 8
- 0.18752 0 1 tcp 1540 ------- 0 0.0 1.0 11 18
0.188 8
- 0.188752 0 1 tcp 1540 ------- 0 0.0 1.0 12 19
0.189 8
- 0.189984 0 1 tcp 1540 ------- 0 0.0 1.0 13 20
0.190 8
0.191 8
- 0.191216 0 1 tcp 1540 ------- 0 0.0 1.0 14 21
0.192 8
0.193 8
0.194 8
0.195 8
0.196 8
0.197 8
0.198 8
0.199 8
0.200 8
0.201 8
0.202 8
0.203 8
0.204 8
0.205 8
0.206 8
0.207 8
0.208 8
0.209 8
0.210 8
0.211 8
0.212 8
0.213 8
r 0.213824 0 1 tcp 1540 ------- 0 0.0 1.0 7 14
+ 0.213824 1 0 ack 40 ------- 0 1.0 0.0 7 22
- 0.213824 1 0 ack 40 ------- 0 1.0 0.0 7 22
0.214 8
0.215 8
r 0.215056 0 1 tcp 1540 ------- 0 0.0 1.0 8 15
+ 0.215056 1 0 ack 40 ------- 0 1.0 0.0 8 23
- 0.215056 1 0 ack 40 ------- 0 1.0 0.0 8 23
0.216 8
r 0.216288 0 1 tcp 1540 ------- 0 0.0 1.0 9 16
+ 0.216288 1 0 ack 40 ------- 0 1.0 0.0 9 24
- 0.216288 1 0 ack 40 ------- 0 1.0 0.0 9 24
0.217 8
r 0.21752 0 1 tcp 1540 ------- 0 0.0 1.0 10 17
+ 0.21752 1 0 ack 40 ------- 0 1.0 0.0 10 25
- 0.21752 1 0 ack 40 ------- 0 1.0 0.0 10 25
0.218 8
r 0.218752 0 1 tcp 1540 ------- 0 0.0 1.0 11 18
+ 0.218752 1 0 ack 40 ------- 0 1.0 0.0 11 26
- 0.218752 1 0 ack 40 ------- 0 1.0 0.0 11 26
0.219 8
r 0.219984 0 1 tcp 1540 ------- 0 0.0 1.0 12 19
+ 0.219984 1 0 ack 40 ------- 0 1.0 0.0 12 27
- 0.219984 1 0 ack 40 ------- 0 1.0 0.0 12 27
0.220 8
0.221 8
r 0.221216 0 1 tcp 1540 ------- 0 0.0 1.0 13 20
+ 0.221216 1 0 ack 40 ------- 0 1.0 0.0 13 28
- 0.221216 1 0 ack 40 ------- 0 1.0 0.0 13 28
0.222 8
r 0.222448 0 1 tcp 1540 ------- 0 0.0 1.0 14 21
+ 0.222448 1 0 ack 40 ------- 0 1.0 0.0 14 29
- 0.222448 1 0 ack 40 ------- 0 1.0 0.0 14 29
0.223 8
0.224 8
0.225 8
0.226 8
0.227 8
0.228 8
0.229 8
0.230 8
0.231 8
0.232 8
0.233 8
0.234 8
0.235 8
0.236 8
0.237 8
0.238 8
0.239 8
0.240 8
0.241 8
0.242 8
0.243 8
r 0.243856 1 0 ack 40 ------- 0 1.0 0.0 7 22
+ 0.243856 0 1 tcp 1540 ------- 0 0.0 1.0 15 30
- 0.243856 0 1 tcp 1540 ------- 0 0.0 1.0 15 30
+ 0.243856 0 1 tcp 1540 ------- 0 0.0 1.0 16 31
0.244 9
0.245 9
r 0.245088 1 0 ack 40 ------- 0 1.0 0.0 8 23
+ 0.245088 0 1 tcp 1540 ------- 0 0.0 1.0 17 32
+ 0.245088 0 1 tcp 1540 ------- 0 0.0 1.0 18 33
- 0.245088 0 1 tcp 1540 ------- 0 0.0 1.0 16 31
0.246 10
r 0.24632 1 0 ack 40 ------- 0 1.0 0.0 9 24
+ 0.24632 0 1 tcp 1540 ------- 0 0.0 1.0 19 34
+ 0.24632 0 1 tcp 1540 ------- 0 0.0 1.0 20 35
- 0.24632 0 1 tcp 1540 ------- 0 0.0 1.0 17 32
0.247 11
r 0.247552 1 0 ack 40 ------- 0 1.0 0.0 10 25
+ 0.247552 0 1 tcp 1540 ------- 0 0.0 1.0 21 36
+ 0.247552 0 1 tcp 1540 ------- 0 0.0 1.0 22 37
- 0.247552 0 1 tcp 1540 ------- 0 0.0 1.0 18 33
0.248 12
r 0.248784 1 0 ack 40 ------- 0 1.0 0.0 11 26
+ 0.248784 0 1 tcp 1540 ------- 0 0.0 1.0 23 38
+ 0.248784 0 1 tcp 1540 ------- 0 0.0 1.0 24 39
- 0.248784 0 1 tcp 1540 ------- 0 0.0 1.0 19 34
0.249 13
0.250 13
r 0.250016 1 0 ack 40 ------- 0 1.0 0.0 12 27
+ 0.250016 0 1 tcp 1540 ------- 0 0.0 1.0 25 40
+ 0.250016 0 1 tcp 1540 ------- 0 0.0 1.0 26 41
- 0.250016 0 1 tcp 1540 ------- 0 0.0 1.0 20 35
0.251 14
r 0.251248 1 0 ack 40 ------- 0 1.0 0.0 13 28
+ 0.251248 0 1 tcp 1540 ------- 0 0.0 1.0 27 42
+ 0.251248 0 1 tcp 1540 ------- 0 0.0 1.0 28 43
- 0.251248 0 1 tcp 1540 ------- 0 0.0 1.0 21 36
0.252 15
r 0.25248 1 0 ack 40 ------- 0 1.0 0.0 14 29
+ 0.25248 0 1 tcp 1540 ------- 0 0.0 1.0 29 44
+ 0.25248 0 1 tcp 1540 ------- 0 0.0 1.0 30 45
- 0.25248 0 1 tcp 1540 ------- 0 0.0 1.0 22 37
0.253 16
- 0.253712 0 1 tcp 1540 ------- 0 0.0 1.0 23 38
0.254 16
- 0.254944 0 1 tcp 1540 ------- 0 0.0 1.0 24 39
0.255 16
0.256 16
- 0.256176 0 1 tcp 1540 ------- 0 0.0 1.0 25 40
0.257 16
- 0.257408 0 1 tcp 1540 ------- 0 0.0 1.0 26 41
0.258 16
- 0.25864 0 1 tcp 1540 ------- 0 0.0 1.0 27 42
0.259 16
- 0.259872 0 1 tcp 1540 ------- 0 0.0 1.0 28 43
0.260 16
0.261 16
- 0.261104 0 1 tcp 1540 ------- 0 0.0 1.0 29 44
0.262 16
- 0.262336 0 1 tcp 1540 ------- 0 0.0 1.0 30 45
0.263 16
0.264 16
0.265 16
0.266 16
0.267 16
0.268 16
0.269 16
0.270 16
0.271 16
0.272 16
0.273 16
0.274 16
0.275 16
r 0.275088 0 1 tcp 1540 ------- 0 0.0 1.0 15 30
+ 0.275088 1 0 ack 40 ------- 0 1.0 0.0 15 46
- 0.275088 1 0 ack 40 ------- 0 1.0 0.0 15 46
0.276 16
r 0.27632 0 1 tcp 1540 ------- 0 0.0 1.0 16 31
+ 0.27632 1 0 ack 40 ------- 0 1.0 0.0 16 47
- 0.27632 1 0 ack 40 ------- 0 1.0 0.0 16 47
0.277 16
r 0.277552 0 1 tcp 1540 ------- 0 0.0 1.0 17 32
+ 0.277552 1 0 ack 40 ------- 0 1.0 0.0 17 48
- 0.277552 1 0 ack 40 ------- 0 1.0 0.0 17 48
0.278 16
r 0.278784 0 1 tcp 1540 ------- 0 0.0 1.0 18 33
+ 0.278784 1 0 ack 40 ------- 0 1.0 0.0 18 49
- 0.278784 1 0 ack 40 ------- 0 1.0 0.0 18 49
0.279 16
0.280 16
r 0.280016 0 1 tcp 1540 ------- 0 0.0 1.0 19 34
+ 0.280016 1 0 ack 40 ------- 0 1.0 0.0 19 50
- 0.280016 1 0 ack 40 ------- 0 1.0 0.0 19 50
0.281 16
r 0.281248 0 1 tcp 1540 ------- 0 0.0 1.0 20 35
+ 0.281248 1 0 ack 40 ------- 0 1.0 0.0 20 51
- 0.281248 1 0 ack 40 ------- 0 1.0 0.0 20 51
0.282 16
r 0.28248 0 1 tcp 1540 ------- 0 0.0 1.0 21 36
+ 0.28248 1 0 ack 40 ------- 0 1.0 0.0 21 52
- 0.28248 1 0 ack 40 ------- 0 1.0 0.0 21 52
0.283 16
r 0.283712 0 1 tcp 1540 ------- 0 0.0 1.0 22 37
+ 0.283712 1 0 ack 40 ------- 0 1.0 0.0 22 53
- 0.283712 1 0 ack 40 ------- 0 1.0 0.0 22 53
0.284 16
r 0.284944 0 1 tcp 1540 ------- 0 0.0 1.0 23 38
+ 0.284944 1 0 ack 40 ------- 0 1.0 0.0 23 54
- 0.284944 1 0 ack 40 ------- 0 1.0 0.0 23 54
0.285 16
0.286 16
r 0.286176 0 1 tcp 1540 ------- 0 0.0 1.0 24 39
+ 0.286176 1 0 ack 40 ------- 0 1.0 0.0 24 55
- 0.286176 1 0 ack 40 ------- 0 1.0 0.0 24 55
0.287 16
r 0.287408 0 1 tcp 1540 ------- 0 0.0 1.0 25 40
+ 0.287408 1 0 ack 40 ------- 0 1.0 0.0 25 56
- 0.287408 1 0 ack 40 ------- 0 1.0 0.0 25 56
0.288 16
r 0.28864 0 1 tcp 1540 ------- 0 0.0 1.0 26 41
+ 0.28864 1 0 ack 40 ------- 0 1.0 0.0 26 57
- 0.28864 1 0 ack 40 ------- 0 1.0 0.0 26 57
0.289 16
r 0.289872 0 1 tcp 1540 ------- 0 0.0 1.0 27 42
+ 0.289872 1 0 ack 40 ------- 0 1.0 0.0 27 58
- 0.289872 1 0 ack 40 ------- 0 1.0 0.0 27 58
0.290 16
0.291 16
r 0.291104 0 1 tcp 1540 ------- 0 0.0 1.0 28 43
+ 0.291104 1 0 ack 40 ------- 0 1.0 0.0 28 59
- 0.291104 1 0 ack 40 ------- 0 1.0 0.0 28 59
0.292 16
r 0.292336 0 1 tcp 1540 ------- 0 0.0 1.0 29 44
+ 0.292336 1 0 ack 40 ------- 0 1.0 0.0 29 60
- 0.292336 1 0 ack 40 ------- 0 1.0 0.0 29 60
0.293 16
r 0.293568 0 1 tcp 1540 ------- 0 0.0 1.0 30 45
+ 0.293568 1 0 ack 40 ------- 0 1.0 0.0 30 61
- 0.293568 1 0 ack 40 ------- 0 1.0 0.0 30 61
0.294 16
0.295 16
0.296 16
0.297 16
0.298 16
0.299 16
0.300 16
0.301 16
0.302 16
0.303 16
0.304 16
0.305 16
r 0.30512 1 0 ack 40 ------- 0 1.0 0.0 15 46
+ 0.30512 0 1 tcp 1540 ------- 0 0.0 1.0 31 62
- 0.30512 0 1 tcp 1540 ------- 0 0.0 1.0 31 62
+ 0.30512 0 1 tcp 1540 ------- 0 0.0 1.0 32 63
0.306 17
r 0.306352 1 0 ack 40 ------- 0 1.0 0.0 16 47
+ 0.306352 0 1 tcp 1540 ------- 0 0.0 1.0 33 64
+ 0.306352 0 1 tcp 1540 ------- 0 0.0 1.0 34 65
- 0.306352 0 1 tcp 1540 ------- 0 0.0 1.0 32 63
0.307 18
r 0.307584 1 0 ack 40 ------- 0 1.0 0.0 17 48
+ 0.307584 0 1 tcp 1540 ------- 0 0.0 1.0 35 66
+ 0.307584 0 1 tcp 1540 ------- 0 0.0 1.0 36 67
- 0.307584 0 1 tcp 1540 ------- 0 0.0 1.0 33 64
0.308 19
r 0.308816 1 0 ack 40 ------- 0 1.0 0.0 18 49
+ 0.308816 0 1 tcp 1540 ------- 0 0.0 1.0 37 68
+ 0.308816 0 1 tcp 1540 ------- 0 0.0 1.0 38 69
- 0.308816 0 1 tcp 1540 ------- 0 0.0 1.0 34 65
0.309 20
0.310 20
r 0.310048 1 0 ack 40 ------- 0 1.0 0.0 19 50
+ 0.310048 0 1 tcp 1540 ------- 0 0.0 1.0 39 70
- 0.310048 0 1 tcp 1540 ------- 0 0.0 1.0 35 66
0.311 20.05
r 0.31128 1 0 ack 40 ------- 0 1.0 0.0 20 51
+ 0.31128 0 1 tcp 1540 ------- 0 0.0 1.0 40 71
- 0.31128 0 1 tcp 1540 ------- 0 0.0 1.0 36 67
0.312 20.0999
r 0.312512 1 0 ack 40 ------- 0 1.0 0.0 21 52
+ 0.312512 0 1 tcp 1540 ------- 0 0.0 1.0 41 72
- 0.312512 0 1 tcp 1540 ------- 0 0.0 1.0 37 68
0.313 20.1496
r 0.313744 1 0 ack 40 ------- 0 1.0 0.0 22 53
+ 0.313744 0 1 tcp 1540 ------- 0 0.0 1.0 42 73
- 0.313744 0 1 tcp 1540 ------- 0 0.0 1.0 38 69
0.314 20.1993
r 0.314976 1 0 ack 40 ------- 0 1.0 0.0 23 54
+ 0.314976 0 1 tcp 1540 ------- 0 0.0 1.0 43 74
- 0.314976 0 1 tcp 1540 ------- 0 0.0 1.0 39 70
0.315 20.2488
0.316 20.2488
r 0.316208 1 0 ack 40 ------- 0 1.0 0.0 24 55
+ 0.316208 0 1 tcp 1540 ------- 0 0.0 1.0 44 75
- 0.316208 0 1 tcp 1540 ------- 0 0.0 1.0 40 71
0.317 20.2981
r 0.31744 1 0 ack 40 ------- 0 1.0 0.0 25 56
+ 0.31744 0 1 tcp 1540 ------- 0 0.0 1.0 45 76
- 0.31744 0 1 tcp 1540 ------- 0 0.0 1.0 41 72
0.318 20.3474
r 0.318672 1 0 ack 40 ------- 0 1.0 0.0 26 57
+ 0.318672 0 1 tcp 1540 ------- 0 0.0 1.0 46 77
- 0.318672 0 1 tcp 1540 ------- 0 0.0 1.0 42 73
0.319 20.3966
r 0.319904 1 0 ack 40 ------- 0 1.0 0.0 27 58
+ 0.319904 0 1 tcp 1540 ------- 0 0.0 1.0 47 78
- 0.319904 0 1 tcp 1540 ------- 0 0.0 1.0 43 74
0.320 20.4456
0.321 20.4456
r 0.321136 1 0 ack 40 ------- 0 1.0 0.0 28 59
+ 0.321136 0 1 tcp 1540 ------- 0 0.0 1.0 48 79
- 0.321136 0 1 tcp 1540 ------- 0 0.0 1.0 44 75
0.322 20.4945
r 0.322368 1 0 ack 40 ------- 0 1.0 0.0 29 60
+ 0.322368 0 1 tcp 1540 ------- 0 0.0 1.0 49 80
- 0.322368 0 1 tcp 1540 ------- 0 0.0 1.0 45 76
0.323 20.5433
r 0.3236 1 0 ack 40 ------- 0 1.0 0.0 30 61
+ 0.3236 0 1 tcp 1540 ------- 0 0.0 1.0 50 81
- 0.3236 0 1 tcp 1540 ------- 0 0.0 1.0 46 77
0.324 20.592
- 0.324832 0 1 tcp 1540 ------- 0 0.0 1.0 47 78
0.325 20.592
0.326 20.592
- 0.326064 0 1 tcp 1540 ------- 0 0.0 1.0 48 79
0.327 20.592
- 0.327296 0 1 tcp 1540 ------- 0 0.0 1.0 49 80
0.328 20.592
- 0.328528 0 1 tcp 1540 ------- 0 0.0 1.0 50 81
0.329 20.592
0.330 20.592
0.331 20.592
0.332 20.592
0.333 20.592
0.334 20.592
0.335 20.592
0.336 20.592
r 0.336352 0 1 tcp 1540 ------- 0 0.0 1.0 31 62
+ 0.336352 1 0 ack 40 ------- 0 1.0 0.0 31 82
- 0.336352 1 0 ack 40 ------- 0 1.0 0.0 31 82
0.337 20.592
r 0.337584 0 1 tcp 1540 ------- 0 0.0 1.0 32 63
+ 0.337584 1 0 ack 40 ------- 0 1.0 0.0 32 83
- 0.337584 1 0 ack 40 ------- 0 1.0 0.0 32 83
0.338 20.592
r 0.338816 0 1 tcp 1540 ------- 0 0.0 1.0 33 64
+ 0.338816 1 0 ack 40 ------- 0 1.0 0.0 33 84
- 0.338816 1 0 ack 40 ------- 0 1.0 0.0 33 84
0.339 20.592
0.340 20.592
r 0.340048 0 1 tcp 1540 ------- 0 0.0 1.0 34 65
+ 0.340048 1 0 ack 40 ------- 0 1.0 0.0 34 85
- 0.340048 1 0 ack 40 ------- 0 1.0 0.0 34 85
0.341 20.592
r 0.34128 0 1 tcp 1540 ------- 0 0.0 1.0 35 66
+ 0.34128 1 0 ack 40 ------- 0 1.0 0.0 35 86
- 0.34128 1 0 ack 40 ------- 0 1.0 0.0 35 86
0.342 20.592
r 0.342512 0 1 tcp 1540 ------- 0 0.0 1.0 36 67
+ 0.342512 1 0 ack 40 ------- 0 1.0 0.0 36 87
- 0.342512 1 0 ack 40 ------- 0 1.0 0.0 36 87
0.343 20.592
r 0.343744 0 1 tcp 1540 ------- 0 0.0 1.0 37 68
+ 0.343744 1 0 ack 40 ------- 0 1.0 0.0 37 88
- 0.343744 1 0 ack 40 ------- 0 1.0 0.0 37 88
0.344 20.592
r 0.344976 0 1 tcp 1540 ------- 0 0.0 1.0 38 69
+ 0.344976 1 0 ack 40 ------- 0 1.0 0.0 38 89
- 0.344976 1 0 ack 40 ------- 0 1.0 0.0 38 89
0.345 20.592
0.346 20.592
r 0.346208 0 1 tcp 1540 ------- 0 0.0 1.0 39 70
+ 0.346208 1 0 ack 40 ------- 0 1.0 0.0 39 90
- 0.346208 1 0 ack 40 ------- 0 1.0 0.0 39 90
0.347 20.592
r 0.34744 0 1 tcp 1540 ------- 0 0.0 1.0 40 71
+ 0.34744 1 0 ack 40 ------- 0 1.0 0.0 40 91
- 0.34744 1 0 ack 40 ------- 0 1.0 0.0 40 91
0.348 20.592
r 0.348672 0 1 tcp 1540 ------- 0 0.0 1.0 41 72
+ 0.348672 1 0 ack 40 ------- 0 1.0 0.0 41 92
- 0.348672 1 0 ack 40 ------- 0 1.0 0.0 41 92
0.349 20.592
r 0.349904 0 1 tcp 1540 ------- 0 0.0 1.0 42 73
+ 0.349904 1 0 ack 40 ------- 0 1.0 0.0 42 93
- 0.349904 1 0 ack 40 ------- 0 1.0 0.0 42 93
0.350 20.592
0.351 20.592
r 0.351136 0 1 tcp 1540 ------- 0 0.0 1.0 43 74
+ 0.351136 1 0 ack 40 ------- 0 1.0 0.0 43 94
- 0.351136 1 0 ack 40 ------- 0 1.0 0.0 43 94
0.352 20.592
r 0.352368 0 1 tcp 1540 ------- 0 0.0 1.0 44 75
+ 0.352368 1 0 ack 40 ------- 0 1.0 0.0 44 95
- 0.352368 1 0 ack 40 ------- 0 1.0 0.0 44 95
0.353 20.592
r 0.3536 0 1 tcp 1540 ------- 0 0.0 1.0 45 76
+ 0.3536 1 0 ack 40 ------- 0 1.0 0.0 45 96
- 0.3536 1 0 ack 40 ------- 0 1.0 0.0 45 96
0.354 20.592
r 0.354832 0 1 tcp 1540 ------- 0 0.0 1.0 46 77
+ 0.354832 1 0 ack 40 ------- 0 1.0 0.0 46 97
- 0.354832 1 0 ack 40 ------- 0 1.0 0.0 46 97
0.355 20.592
0.356 20.592
r 0.356064 0 1 tcp 1540 ------- 0 0.0 1.0 47 78
+ 0.356064 1 0 ack 40 ------- 0 1.0 0.0 47 98
- 0.356064 1 0 ack 40 ------- 0 1.0 0.0 47 98
0.357 20.592
r 0.357296 0 1 tcp 1540 ------- 0 0.0 1.0 48 79
+ 0.357296 1 0 ack 40 ------- 0 1.0 0.0 48 99
- 0.357296 1 0 ack 40 ------- 0 1.0 0.0 48 99
0.358 20.592
r 0.358528 0 1 tcp 1540 ------- 0 0.0 1.0 49 80
+ 0.358528 1 0 ack 40 ------- 0 1.0 0.0 49 100
- 0.358528 1 0 ack 40 ------- 0 1.0 0.0 49 100
0.359 20.592
r 0.35976 0 1 tcp 1540 ------- 0 0.0 1.0 50 81
+ 0.35976 1 0 ack 40 ------- 0 1.0 0.0 50 101
- 0.35976 1 0 ack 40 ------- 0 1.0 0.0 50 101
0.360 20.592
0.361 20.592
0.362 20.592
0.363 20.592
0.364 20.592
0.365 20.592
0.366 20.592
r 0.366384 1 0 ack 40 ------- 0 1.0 0.0 31 82
+ 0.366384 0 1 tcp 1540 ------- 0 0.0 1.0 51 102
- 0.366384 0 1 tcp 1540 ------- 0 0.0 1.0 51 102
0.367 20.6405
r 0.367616 1 0 ack 40 ------- 0 1.0 0.0 32 83
+ 0.367616 0 1 tcp 1540 ------- 0 0.0 1.0 52 103
- 0.367616 0 1 tcp 1540 ------- 0 0.0 1.0 52 103
0.368 20.689
r 0.368848 1 0 ack 40 ------- 0 1.0 0.0 33 84
+ 0.368848 0 1 tcp 1540 ------- 0 0.0 1.0 53 104
- 0.368848 0 1 tcp 1540 ------- 0 0.0 1.0 53 104
0.369 20.7373
0.370 20.7373
r 0.37008 1 0 ack 40 ------- 0 1.0 0.0 34 85
+ 0.37008 0 1 tcp 1540 ------- 0 0.0 1.0 54 105
- 0.37008 0 1 tcp 1540 ------- 0 0.0 1.0 54 105
0.371 20.7855
r 0.371312 1 0 ack 40 ------- 0 1.0 0.0 35 86
+ 0.371312 0 1 tcp 1540 ------- 0 0.0 1.0 55 106
- 0.371312 0 1 tcp 1540 ------- 0 0.0 1.0 55 106
0.372 20.8336
r 0.372544 1 0 ack 40 ------- 0 1.0 0.0 36 87
+ 0.372544 0 1 tcp 1540 ------- 0 0.0 1.0 56 107
- 0.372544 0 1 tcp 1540 ------- 0 0.0 1.0 56 107
0.373 20.8816
r 0.373776 1 0 ack 40 ------- 0 1.0 0.0 37 88
+ 0.373776 0 1 tcp 1540 ------- 0 0.0 1.0 57 108
- 0.373776 0 1 tcp 1540 ------- 0 0.0 1.0 57 108
0.374 20.9295
0.375 20.9295
r 0.375008 1 0 ack 40 ------- 0 1.0 0.0 38 89
+ 0.375008 0 1 tcp 1540 ------- 0 0.0 1.0 58 109
- 0.375008 0 1 tcp 1540 ------- 0 0.0 1.0 58 109
0.376 20.9773
r 0.37624 1 0 ack 40 ------- 0 1.0 0.0 39 90
+ 0.37624 0 1 tcp 1540 ------- 0 0.0 1.0 59 110
- 0.37624 0 1 tcp 1540 ------- 0 0.0 1.0 59 110
0.377 21.025
r 0.377472 1 0 ack 40 ------- 0 1.0 0.0 40 91
+ 0.377472 0 1 tcp 1540 ------- 0 0.0 1.0 60 111
- 0.377472 0 1 tcp 1540 ------- 0 0.0 1.0 60 111
0.378 21.0725
r 0.378704 1 0 ack 40 ------- 0 1.0 0.0 41 92
+ 0.378704 0 1 tcp 1540 ------- 0 0.0 1.0 61 112
- 0.378704 0 1 tcp 1540 ------- 0 0.0 1.0 61 112
0.379 21.12
r 0.379936 1 0 ack 40 ------- 0 1.0 0.0 42 93
+ 0.379936 0 1 tcp 1540 ------- 0 0.0 1.0 62 113
- 0.379936 0 1 tcp 1540 ------- 0 0.0 1.0 62 113
0.380 21.1674
0.381 21.1674
r 0.381168 1 0 ack 40 ------- 0 1.0 0.0 43 94
+ 0.381168 0 1 tcp 1540 ------- 0 0.0 1.0 63 114
- 0.381168 0 1 tcp 1540 ------- 0 0.0 1.0 63 114
0.382 21.2146
r 0.3824 1 0 ack 40 ------- 0 1.0 0.0 44 95
+ 0.3824 0 1 tcp 1540 ------- 0 0.0 1.0 64 115
- 0.3824 0 1 tcp 1540 ------- 0 0.0 1.0 64 115
0.383 21.2617
r 0.383632 1 0 ack 40 ------- 0 1.0 0.0 45 96
+ 0.383632 0 1 tcp 1540 ------- 0 0.0 1.0 65 116
- 0.383632 0 1 tcp 1540 ------- 0 0.0 1.0 65 116
0.384 21.3088
r 0.384864 1 0 ack 40 ------- 0 1.0 0.0 46 97
+ 0.384864 0 1 tcp 1540 ------- 0 0.0 1.0 66 117
- 0.384864 0 1 tcp 1540 ------- 0 0.0 1.0 66 117
0.385 21.3557
0.386 21.3557
r 0.386096 1 0 ack 40 ------- 0 1.0 0.0 47 98
+ 0.386096 0 1 tcp 1540 ------- 0 0.0 1.0 67 118
- 0.386096 0 1 tcp 1540 ------- 0 0.0 1.0 67 118
0.387 21.4025
r 0.387328 1 0 ack 40 ------- 0 1.0 0.0 48 99
+ 0.387328 0 1 tcp 1540 ------- 0 0.0 1.0 68 119
- 0.387328 0 1 tcp 1540 ------- 0 0.0 1.0 68 119
0.388 21.4492
r 0.38856 1 0 ack 40 ------- 0 1.0 0.0 49 100
+ 0.38856 0 1 tcp 1540 ------- 0 0.0 1.0 69 120
- 0.38856 0 1 tcp 1540 ------- 0 0.0 1.0 69 120
0.389 21.4959
r 0.389792 1 0 ack 40 ------- 0 1.0 0.0 50 101
+ 0.389792 0 1 tcp 1540 ------- 0 0.0 1.0 70 121
- 0.389792 0 1 tcp 1540 ------- 0 0.0 1.0 70 121
0.390 21.5424
0.391 21.5424
0.392 21.5424
0.393 21.5424
0.394 21.5424
0.395 21.5424
0.396 21.5424
0.397 21.5424
r 0.397616 0 1 tcp 1540 ------- 0 0.0 1.0 51 102
+ 0.397616 1 0 ack 40 ------- 0 1.0 0.0 51 122
- 0.397616 1 0 ack 40 ------- 0 1.0 0.0 51 122
0.398 21.5424
r 0.398848 0 1 tcp 1540 ------- 0 0.0 1.0 52 103
+ 0.398848 1 0 ack 40 ------- 0 1.0 0.0 52 123
- 0.398848 1 0 ack 40 ------- 0 1.0 0.0 52 123
0.399 21.5424
0.400 21.5424
r 0.40008 0 1 tcp 1540 ------- 0 0.0 1.0 53 104
+ 0.40008 1 0 ack 40 ------- 0 1.0 0.0 53 124
- 0.40008 1 0 ack 40 ------- 0 1.0 0.0 53 124
0.401 21.5424
r 0.401312 0 1 tcp 1540 ------- 0 0.0 1.0 54 105
+ 0.401312 1 0 ack 40 ------- 0 1.0 0.0 54 125
- 0.401312 1 0 ack 40 ------- 0 1.0 0.0 54 125
0.402 21.5424
r 0.402544 0 1 tcp 1540 ------- 0 0.0 1.0 55 106
+ 0.402544 1 0 ack 40 ------- 0 1.0 0.0 55 126
- 0.402544 1 0 ack 40 ------- 0 1.0 0.0 55 126
0.403 21.5424
r 0.403776 0 1 tcp 1540 ------- 0 0.0 1.0 56 107
+ 0.403776 1 0 ack 40 ------- 0 1.0 0.0 56 127
- 0.403776 1 0 ack 40 ------- 0 1.0 0.0 56 127
0.404 21.5424
0.405 21.5424
r 0.405008 0 1 tcp 1540 ------- 0 0.0 1.0 57 108
+ 0.405008 1 0 ack 40 ------- 0 1.0 0.0 57 128
- 0.405008 1 0 ack 40 ------- 0 1.0 0.0 57 128
0.406 21.5424
r 0.40624 0 1 tcp 1540 ------- 0 0.0 1.0 58 109
+ 0.40624 1 0 ack 40 ------- 0 1.0 0.0 58 129
- 0.40624 1 0 ack 40 ------- 0 1.0 0.0 58 129
0.407 21.5424
r 0.407472 0 1 tcp 1540 ------- 0 0.0 1.0 59 110
+ 0.407472 1 0 ack 40 ------- 0 1.0 0.0 59 130
- 0.407472 1 0 ack 40 ------- 0 1.0 0.0 59 130
0.408 21.5424
r 0.408704 0 1 tcp 1540 ------- 0 0.0 1.0 60 111
+ 0.408704 1 0 ack 40 ------- 0 1.0 0.0 60 131
- 0.408704 1 0 ack 40 ------- 0 1.0 0.0 60 131
0.409 21.5424
r 0.409936 0 1 tcp 1540 ------- 0 0.0 1.0 61 112
+ 0.409936 1 0 ack 40 ------- 0 1.0 0.0 61 132
- 0.409936 1 0 ack 40 ------- 0 1.0 0.0 61 132
0.410 21.5424
0.411 21.5424
r 0.411168 0 1 tcp 1540 ------- 0 0.0 1.0 62 113
+ 0.411168 1 0 ack 40 ------- 0 1.0 0.0 62 133
- 0.411168 1 0 ack 40 ------- 0 1.0 0.0 62 133
0.412 21.5424
r 0.4124 0 1 tcp 1540 ------- 0 0.0 1.0 63 114
+ 0.4124 1 0 ack 40 ------- 0 1.0 0.0 63 134
- 0.4124 1 0 ack 40 ------- 0 1.0 0.0 63 134
0.413 21.5424
r 0.413632 0 1 tcp 1540 ------- 0 0.0 1.0 64 115
+ 0.413632 1 0 ack 40 ------- 0 1.0 0.0 64 135
- 0.413632 1 0 ack 40 ------- 0 1.0 0.0 64 135
0.414 21.5424
r 0.414864 0 1 tcp 1540 ------- 0 0.0 1.0 65 116
+ 0.414864 1 0 ack 40 ------- 0 1.0 0.0 65 136
- 0.414864 1 0 ack 40 ------- 0 1.0 0.0 65 136
0.415 21.5424
0.416 21.5424
r 0.416096 0 1 tcp 1540 ------- 0 0.0 1.0 66 117
+ 0.416096 1 0 ack 40 ------- 0 1.0 0.0 66 137
- 0.416096 1 0 ack 40 ------- 0 1.0 0.0 66 137
0.417 21.5424
r 0.417328 0 1 tcp 1540 ------- 0 0.0 1.0 67 118
+ 0.417328 1 0 ack 40 ------- 0 1.0 0.0 67 138
- 0.417328 1 0 ack 40 ------- 0 1.0 0.0 67 138
0.418 21.5424
r 0.41856 0 1 tcp 1540 ------- 0 0.0 1.0 68 119
+ 0.41856 1 0 ack 40 ------- 0 1.0 0.0 68 139
- 0.41856 1 0 ack 40 ------- 0 1.0 0.0 68 139
0.419 21.5424
r 0.419792 0 1 tcp 1540 ------- 0 0.0 1.0 69 120
+ 0.419792 1 0 ack 40 ------- 0 1.0 0.0 69 140
- 0.419792 1 0 ack 40 ------- 0 1.0 0.0 69 140
0.420 21.5424
0.421 21.5424
r 0.421024 0 1 tcp 1540 ------- 0 0.0 1.0 70 121
+ 0.421024 1 0 ack 40 ------- 0 1.0 0.0 70 141
- 0.421024 1 0 ack 40 ------- 0 1.0 0.0 70 141
0.422 21.5424
0.423 21.5424
0.424 21.5424
0.425 21.5424
0.426 21.5424
0.427 21.5424
r 0.427648 1 0 ack 40 ------- 0 1.0 0.0 51 122
+ 0.427648 0 1 tcp 1540 ------- 0 0.0 1.0 71 142
- 0.427648 0 1 tcp 1540 ------- 0 0.0 1.0 71 142
0.428 21.5888
r 0.42888 1 0 ack 40 ------- 0 1.0 0.0 52 123
+ 0.42888 0 1 tcp 1540 ------- 0 0.0 1.0 72 143
- 0.42888 0 1 tcp 1540 ------- 0 0.0 1.0 72 143
0.429 21.6351
0.430 21.6351
r 0.430112 1 0 ack 40 ------- 0 1.0 0.0 53 124
+ 0.430112 0 1 tcp 1540 ------- 0 0.0 1.0 73 144
- 0.430112 0 1 tcp 1540 ------- 0 0.0 1.0 73 144
0.431 21.6813
r 0.431344 1 0 ack 40 ------- 0 1.0 0.0 54 125
+ 0.431344 0 1 tcp 1540 ------- 0 0.0 1.0 74 145
- 0.431344 0 1 tcp 1540 ------- 0 0.0 1.0 74 145
0.432 21.7275
r 0.432576 1 0 ack 40 ------- 0 1.0 0.0 55 126
+ 0.432576 0 1 tcp 1540 ------- 0 0.0 1.0 75 146
- 0.432576 0 1 tcp 1540 ------- 0 0.0 1.0 75 146
0.433 21.7735
r 0.433808 1 0 ack 40 ------- 0 1.0 0.0 56 127
+ 0.433808 0 1 tcp 1540 ------- 0 0.0 1.0 76 147
- 0.433808 0 1 tcp 1540 ------- 0 0.0 1.0 76 147
0.434 21.8194
0.435 21.8194
r 0.43504 1 0 ack 40 ------- 0 1.0 0.0 57 128
+ 0.43504 0 1 tcp 1540 ------- 0 0.0 1.0 77 148
- 0.43504 0 1 tcp 1540 ------- 0 0.0 1.0 77 148
0.436 21.8653
r 0.436272 1 0 ack 40 ------- 0 1.0 0.0 58 129
+ 0.436272 0 1 tcp 1540 ------- 0 0.0 1.0 78 149
- 0.436272 0 1 tcp 1540 ------- 0 0.0 1.0 78 149
0.437 21.911
r 0.437504 1 0 ack 40 ------- 0 1.0 0.0 59 130
+ 0.437504 0 1 tcp 1540 ------- 0 0.0 1.0 79 150
- 0.437504 0 1 tcp 1540 ------- 0 0.0 1.0 79 150
0.438 21.9566
r 0.438736 1 0 ack 40 ------- 0 1.0 0.0 60 131
+ 0.438736 0 1 tcp 1540 ------- 0 0.0 1.0 80 151
- 0.438736 0 1 tcp 1540 ------- 0 0.0 1.0 80 151
0.439 22.0022
r 0.439968 1 0 ack 40 ------- 0 1.0 0.0 61 132
+ 0.439968 0 1 tcp 1540 ------- 0 0.0 1.0 81 152
- 0.439968 0 1 tcp 1540 ------- 0 0.0 1.0 81 152
0.440 22.0476
0.441 22.0476
r 0.4412 1 0 ack 40 ------- 0 1.0 0.0 62 133
+ 0.4412 0 1 tcp 1540 ------- 0 0.0 1.0 82 153
- 0.4412 0 1 tcp 1540 ------- 0 0.0 1.0 82 153
0.442 22.093
r 0.442432 1 0 ack 40 ------- 0 1.0 0.0 63 134
+ 0.442432 0 1 tcp 1540 ------- 0 0.0 1.0 83 154
- 0.442432 0 1 tcp 1540 ------- 0 0.0 1.0 83 154
0.443 22.1382
r 0.443664 1 0 ack 40 ------- 0 1.0 0.0 64 135
+ 0.443664 0 1 tcp 1540 ------- 0 0.0 1.0 84 155
- 0.443664 0 1 tcp 1540 ------- 0 0.0 1.0 84 155
0.444 22.1834
r 0.444896 1 0 ack 40 ------- 0 1.0 0.0 65 136
+ 0.444896 0 1 tcp 1540 ------- 0 0.0 1.0 85 156
- 0.444896 0 1 tcp 1540 ------- 0 0.0 1.0 85 156
0.445 22.2285
0.446 22.2285
r 0.446128 1 0 ack 40 ------- 0 1.0 0.0 66 137
+ 0.446128 0 1 tcp 1540 ------- 0 0.0 1.0 86 157
- 0.446128 0 1 tcp 1540 ------- 0 0.0 1.0 86 157
0.447 22.2735
r 0.44736 1 0 ack 40 ------- 0 1.0 0.0 67 138
+ 0.44736 0 1 tcp 1540 ------- 0 0.0 1.0 87 158
- 0.44736 0 1 tcp 1540 ------- 0 0.0 1.0 87 158
0.448 22.3184
r 0.448592 1 0 ack 40 ------- 0 1.0 0.0 68 139
+ 0.448592 0 1 tcp 1540 ------- 0 0.0 1.0 88 159
- 0.448592 0 1 tcp 1540 ------- 0 0.0 1.0 88 159
0.449 22.3632
r 0.449824 1 0 ack 40 ------- 0 1.0 0.0 69 140
+ 0.449824 0 1 tcp 1540 ------- 0 0.0 1.0 89 160
- 0.449824 0 1 tcp 1540 ------- 0 0.0 1.0 89 160
0.450 22.4079
0.451 22.4079
r 0.451056 1 0 ack 40 ------- 0 1.0 0.0 70 141
+ 0.451056 0 1 tcp 1540 ------- 0 0.0 1.0 90 161
- 0.451056 0 1 tcp 1540 ------- 0 0.0 1.0 90 161
0.452 22.4525
0.453 22.4525
0.454 22.4525
0.455 22.4525
0.456 22.4525
0.457 22.4525
0.458 22.4525
r 0.45888 0 1 tcp 1540 ------- 0 0.0 1.0 71 142
+ 0.45888 1 0 ack 40 ------- 0 1.0 0.0 71 162
- 0.45888 1 0 ack 40 ------- 0 1.0 0.0 71 162
0.459 22.4525
0.460 22.4525
r 0.460112 0 1 tcp 1540 ------- 0 0.0 1.0 72 143
+ 0.460112 1 0 ack 40 ------- 0 1.0 0.0 72 163
- 0.460112 1 0 ack 40 ------- 0 1.0 0.0 72 163
0.461 22.4525
r 0.461344 0 1 tcp 1540 ------- 0 0.0 1.0 73 144
+ 0.461344 1 0 ack 40 ------- 0 1.0 0.0 73 164
- 0.461344 1 0 ack 40 ------- 0 1.0 0.0 73 164
0.462 22.4525
r 0.462576 0 1 tcp 1540 ------- 0 0.0 1.0 74 145
+ 0.462576 1 0 ack 40 ------- 0 1.0 0.0 74 165
- 0.462576 1 0 ack 40 ------- 0 1.0 0.0 74 165
0.463 22.4525
r 0.463808 0 1 tcp 1540 ------- 0 0.0 1.0 75 146
+ 0.463808 1 0 ack 40 ------- 0 1.0 0.0 75 166
- 0.463808 1 0 ack 40 ------- 0 1.0 0.0 75 166
0.464 22.4525
0.465 22.4525
r 0.46504 0 1 tcp 1540 ------- 0 0.0 1.0 76 147
+ 0.46504 1 0 ack 40 ------- 0 1.0 0.0 76 167
- 0.46504 1 0 ack 40 ------- 0 1.0 0.0 76 167
0.466 22.4525
r 0.466272 0 1 tcp 1540 ------- 0 0.0 1.0 77 148
+ 0.466272 1 0 ack 40 ------- 0 1.0 0.0 77 168
- 0.466272 1 0 ack 40 ------- 0 1.0 0.0 77 168
0.467 22.4525
r 0.467504 0 1 tcp 1540 ------- 0 0.0 1.0 78 149
+ 0.467504 1 0 ack 40 ------- 0 1.0 0.0 78 169
- 0.467504 1 0 ack 40 ------- 0 1.0 0.0 78 169
0.468 22.4525
r 0.468736 0 1 tcp 1540 ------- 0 0.0 1.0 79 150
+ 0.468736 1 0 ack 40 ------- 0 1.0 0.0 79 170
- 0.468736 1 0 ack 40 ------- 0 1.0 0.0 79 170
0.469 22.4525
r 0.469968 0 1 tcp 1540 ------- 0 0.0 1.0 80 151
+ 0.469968 1 0 ack 40 ------- 0 1.0 0.0 80 171
- 0.469968 1 0 ack 40 ------- 0 1.0 0.0 80 171
0.470 22.4525
0.471 22.4525
r 0.4712 0 1 tcp 1540 ------- 0 0.0 1.0 81 152
+ 0.4712 1 0 ack 40 ------- 0 1.0 0.0 81 172
- 0.4712 1 0 ack 40 ------- 0 1.0 0.0 81 172
0.472 22.4525
r 0.472432 0 1 tcp 1540 ------- 0 0.0 1.0 82 153
+ 0.472432 1 0 ack 40 ------- 0 1.0 0.0 82 173
- 0.472432 1 0 ack 40 ------- 0 1.0 0.0 82 173
0.473 22.4525
r 0.473664 0 1 tcp 1540 ------- 0 0.0 1.0 83 154
+ 0.473664 1 0 ack 40 ------- 0 1.0 0.0 83 174
- 0.473664 1 0 ack 40 ------- 0 1.0 0.0 83 174
0.474 22.4525
r 0.474896 0 1 tcp 1540 ------- 0 0.0 1.0 84 155
+ 0.474896 1 0 ack 40 ------- 0 1.0 0.0 84 175
- 0.474896 1 0 ack 40 ------- 0 1.0 0.0 84 175
0.475 22.4525
0.476 22.4525
r 0.476128 0 1 tcp 1540 ------- 0 0.0 1.0 85 156
+ 0.476128 1 0 ack 40 ------- 0 1.0 0.0 85 176
- 0.476128 1 0 ack 40 ------- 0 1.0 0.0 85 176
0.477 22.4525
r 0.47736 0 1 tcp 1540 ------- 0 0.0 1.0 86 157
+ 0.47736 1 0 ack 40 ------- 0 1.0 0.0 86 177
- 0.47736 1 0 ack 40 ------- 0 1.0 0.0 86 177
0.478 22.4525
r 0.478592 0 1 tcp 1540 ------- 0 0.0 1.0 87 158
+ 0.478592 1 0 ack 40 ------- 0 1.0 0.0 87 178
- 0.478592 1 0 ack 40 ------- 0 1.0 0.0 87 178
0.479 22.4525
r 0.479824 0 1 tcp 1540 ------- 0 0.0 1.0 88 159
+ 0.479824 1 0 ack 40 ------- 0 1.0 0.0 88 179
- 0.479824 1 0 ack 40 ------- 0 1.0 0.0 88 179
0.480 22.4525
0.481 22.4525
r 0.481056 0 1 tcp 1540 ------- 0 0.0 1.0 89 160
+ 0.481056 1 0 ack 40 ------- 0 1.0 0.0 89 180
- 0.481056 1 0 ack 40 ------- 0 1.0 0.0 89 180
0.482 22.4525
r 0.482288 0 1 tcp 1540 ------- 0 0.0 1.0 90 161
+ 0.482288 1 0 ack 40 ------- 0 1.0 0.0 90 181
- 0.482288 1 0 ack 40 ------- 0 1.0 0.0 90 181
0.483 22.4525
0.484 22.4525
0.485 22.4525
0.486 22.4525
0.487 22.4525
0.488 22.4525
r 0.488912 1 0 ack 40 ------- 0 1.0 0.0 71 162
+ 0.488912 0 1 tcp 1540 ------- 0 0.0 1.0 91 182
- 0.488912 0 1 tcp 1540 ------- 0 0.0 1.0 91 182
0.489 22.4971
0.490 22.4971
r 0.490144 1 0 ack 40 ------- 0 1.0 0.0 72 163