+ 0 0 1 tcp 40 ------- 0 0.0 1.0 0 0
- 0 0 1 tcp 40 ------- 0 0.0 1.0 0 0
0.000 1
0.001 1
0.002 1
r 0.002532 0 1 tcp 40 ------- 0 0.0 1.0 0 0
+ 0.002532 1 0 ack 40 ------- 0 1.0 0.0 0 1
- 0.002532 1 0 ack 40 ------- 0 1.0 0.0 0 1
0.003 1
0.004 1
0.005 1
r 0.005064 1 0 ack 40 ------- 0 1.0 0.0 0 1
+ 0.005064 0 1 tcp 1540 ------- 0 0.0 1.0 1 2
- 0.005064 0 1 tcp 1540 ------- 0 0.0 1.0 1 2
+ 0.005064 0 1 tcp 1540 ------- 0 0.0 1.0 2 3
0.006 2
- 0.006296 0 1 tcp 1540 ------- 0 0.0 1.0 2 3
0.007 2
0.008 2
r 0.008796 0 1 tcp 1540 ------- 0 0.0 1.0 1 2
+ 0.008796 1 0 ack 40 ------- 0 1.0 0.0 1 4
- 0.008796 1 0 ack 40 ------- 0 1.0 0.0 1 4
0.009 2
0.010 2
r 0.010028 0 1 tcp 1540 ------- 0 0.0 1.0 2 3
+ 0.010028 1 0 ack 40 ------- 0 1.0 0.0 2 5
- 0.010028 1 0 ack 40 ------- 0 1.0 0.0 2 5
0.011 2
r 0.011328 1 0 ack 40 ------- 0 1.0 0.0 1 4
+ 0.011328 0 1 tcp 1540 ------- 0 0.0 1.0 3 6
- 0.011328 0 1 tcp 1540 ------- 0 0.0 1.0 3 6
+ 0.011328 0 1 tcp 1540 ------- 0 0.0 1.0 4 7
0.012 3
r 0.01256 1 0 ack 40 ------- 0 1.0 0.0 2 5
+ 0.01256 0 1 tcp 1540 ------- 0 0.0 1.0 5 8
+ 0.01256 0 1 tcp 1540 ------- 0 0.0 1.0 6 9
- 0.01256 0 1 tcp 1540 ------- 0 0.0 1.0 4 7
0.013 4
- 0.013792 0 1 tcp 1540 ------- 0 0.0 1.0 5 8
0.014 4
0.015 4
- 0.015024 0 1 tcp 1540 ------- 0 0.0 1.0 6 9
r 0.01506 0 1 tcp 1540 ------- 0 0.0 1.0 3 6
+ 0.01506 1 0 ack 40 ------- 0 1.0 0.0 3 10
- 0.01506 1 0 ack 40 ------- 0 1.0 0.0 3 10
0.016 4
r 0.016292 0 1 tcp 1540 ------- 0 0.0 1.0 4 7
+ 0.016292 1 0 ack 40 ------- 0 1.0 0.0 4 11
- 0.016292 1 0 ack 40 ------- 0 1.0 0.0 4 11
0.017 4
r 0.017524 0 1 tcp 1540 ------- 0 0.0 1.0 5 8
+ 0.017524 1 0 ack 40 ------- 0 1.0 0.0 5 12
- 0.017524 1 0 ack 40 ------- 0 1.0 0.0 5 12
r 0.017592 1 0 ack 40 ------- 0 1.0 0.0 3 10
+ 0.017592 0 1 tcp 1540 ------- 0 0.0 1.0 7 13
- 0.017592 0 1 tcp 1540 ------- 0 0.0 1.0 7 13
+ 0.017592 0 1 tcp 1540 ------- 0 0.0 1.0 8 14
0.018 5
r 0.018756 0 1 tcp 1540 ------- 0 0.0 1.0 6 9
+ 0.018756 1 0 ack 40 ------- 0 1.0 0.0 6 15
- 0.018756 1 0 ack 40 ------- 0 1.0 0.0 6 15
r 0.018824 1 0 ack 40 ------- 0 1.0 0.0 4 11
+ 0.018824 0 1 tcp 1540 ------- 0 0.0 1.0 9 16
+ 0.018824 0 1 tcp 1540 ------- 0 0.0 1.0 10 17
- 0.018824 0 1 tcp 1540 ------- 0 0.0 1.0 8 14
0.019 6
0.020 6
r 0.020056 1 0 ack 40 ------- 0 1.0 0.0 5 12
+ 0.020056 0 1 tcp 1540 ------- 0 0.0 1.0 11 18
+ 0.020056 0 1 tcp 1540 ------- 0 0.0 1.0 12 19
- 0.020056 0 1 tcp 1540 ------- 0 0.0 1.0 9 16
0.021 7
r 0.021288 1 0 ack 40 ------- 0 1.0 0.0 6 15
+ 0.021288 0 1 tcp 1540 ------- 0 0.0 1.0 13 20
+ 0.021288 0 1 tcp 1540 ------- 0 0.0 1.0 14 21
- 0.021288 0 1 tcp 1540 ------- 0 0.0 1.0 10 17
r 0.021324 0 1 tcp 1540 ------- 0 0.0 1.0 7 13
+ 0.021324 1 0 ack 40 ------- 0 1.0 0.0 7 22
- 0.021324 1 0 ack 40 ------- 0 1.0 0.0 7 22
0.022 8
- 0.02252 0 1 tcp 1540 ------- 0 0.0 1.0 11 18
r 0.022556 0 1 tcp 1540 ------- 0 0.0 1.0 8 14
+ 0.022556 1 0 ack 40 ------- 0 1.0 0.0 8 23
- 0.022556 1 0 ack 40 ------- 0 1.0 0.0 8 23
0.023 8
- 0.023752 0 1 tcp 1540 ------- 0 0.0 1.0 12 19
r 0.023788 0 1 tcp 1540 ------- 0 0.0 1.0 9 16
+ 0.023788 1 0 ack 40 ------- 0 1.0 0.0 9 24
- 0.023788 1 0 ack 40 ------- 0 1.0 0.0 9 24
r 0.023856 1 0 ack 40 ------- 0 1.0 0.0 7 22
+ 0.023856 0 1 tcp 1540 ------- 0 0.0 1.0 15 25
+ 0.023856 0 1 tcp 1540 ------- 0 0.0 1.0 16 26
0.024 9
- 0.024984 0 1 tcp 1540 ------- 0 0.0 1.0 13 20
0.025 9
r 0.02502 0 1 tcp 1540 ------- 0 0.0 1.0 10 17
+ 0.02502 1 0 ack 40 ------- 0 1.0 0.0 10 27
- 0.02502 1 0 ack 40 ------- 0 1.0 0.0 10 27
r 0.025088 1 0 ack 40 ------- 0 1.0 0.0 8 23
+ 0.025088 0 1 tcp 1540 ------- 0 0.0 1.0 17 28
+ 0.025088 0 1 tcp 1540 ------- 0 0.0 1.0 18 29
0.026 10
- 0.026216 0 1 tcp 1540 ------- 0 0.0 1.0 14 21
r 0.026252 0 1 tcp 1540 ------- 0 0.0 1.0 11 18
+ 0.026252 1 0 ack 40 ------- 0 1.0 0.0 11 30
- 0.026252 1 0 ack 40 ------- 0 1.0 0.0 11 30
r 0.02632 1 0 ack 40 ------- 0 1.0 0.0 9 24
+ 0.02632 0 1 tcp 1540 ------- 0 0.0 1.0 19 31
+ 0.02632 0 1 tcp 1540 ------- 0 0.0 1.0 20 32
0.027 11
- 0.027448 0 1 tcp 1540 ------- 0 0.0 1.0 15 25
r 0.027484 0 1 tcp 1540 ------- 0 0.0 1.0 12 19
+ 0.027484 1 0 ack 40 ------- 0 1.0 0.0 12 33
- 0.027484 1 0 ack 40 ------- 0 1.0 0.0 12 33
r 0.027552 1 0 ack 40 ------- 0 1.0 0.0 10 27
+ 0.027552 0 1 tcp 1540 ------- 0 0.0 1.0 21 34
+ 0.027552 0 1 tcp 1540 ------- 0 0.0 1.0 22 35
0.028 12
- 0.02868 0 1 tcp 1540 ------- 0 0.0 1.0 16 26
r 0.028716 0 1 tcp 1540 ------- 0 0.0 1.0 13 20
+ 0.028716 1 0 ack 40 ------- 0 1.0 0.0 13 36
- 0.028716 1 0 ack 40 ------- 0 1.0 0.0 13 36
r 0.028784 1 0 ack 40 ------- 0 1.0 0.0 11 30
+ 0.028784 0 1 tcp 1540 ------- 0 0.0 1.0 23 37
+ 0.028784 0 1 tcp 1540 ------- 0 0.0 1.0 24 38
0.029 13
- 0.029912 0 1 tcp 1540 ------- 0 0.0 1.0 17 28
r 0.029948 0 1 tcp 1540 ------- 0 0.0 1.0 14 21
+ 0.029948 1 0 ack 40 ------- 0 1.0 0.0 14 39
- 0.029948 1 0 ack 40 ------- 0 1.0 0.0 14 39
0.030 13
r 0.030016 1 0 ack 40 ------- 0 1.0 0.0 12 33
+ 0.030016 0 1 tcp 1540 ------- 0 0.0 1.0 25 40
+ 0.030016 0 1 tcp 1540 ------- 0 0.0 1.0 26 41
0.031 14
- 0.031144 0 1 tcp 1540 ------- 0 0.0 1.0 18 29
r 0.03118 0 1 tcp 1540 ------- 0 0.0 1.0 15 25
+ 0.03118 1 0 ack 40 ------- 0 1.0 0.0 15 42
- 0.03118 1 0 ack 40 ------- 0 1.0 0.0 15 42
r 0.031248 1 0 ack 40 ------- 0 1.0 0.0 13 36
+ 0.031248 0 1 tcp 1540 ------- 0 0.0 1.0 27 43
+ 0.031248 0 1 tcp 1540 ------- 0 0.0 1.0 28 44
0.032 15
- 0.032376 0 1 tcp 1540 ------- 0 0.0 1.0 19 31
r 0.032412 0 1 tcp 1540 ------- 0 0.0 1.0 16 26
+ 0.032412 1 0 ack 40 ------- 0 1.0 0.0 16 45
- 0.032412 1 0 ack 40 ------- 0 1.0 0.0 16 45
r 0.03248 1 0 ack 40 ------- 0 1.0 0.0 14 39
+ 0.03248 0 1 tcp 1540 ------- 0 0.0 1.0 29 46
+ 0.03248 0 1 tcp 1540 ------- 0 0.0 1.0 30 47
0.033 16
- 0.033608 0 1 tcp 1540 ------- 0 0.0 1.0 20 32
r 0.033644 0 1 tcp 1540 ------- 0 0.0 1.0 17 28
+ 0.033644 1 0 ack 40 ------- 0 1.0 0.0 17 48
- 0.033644 1 0 ack 40 ------- 0 1.0 0.0 17 48
r 0.033712 1 0 ack 40 ------- 0 1.0 0.0 15 42
+ 0.033712 0 1 tcp 1540 ------- 0 0.0 1.0 31 49
+ 0.033712 0 1 tcp 1540 ------- 0 0.0 1.0 32 50
0.034 17
- 0.03484 0 1 tcp 1540 ------- 0 0.0 1.0 21 34
r 0.034876 0 1 tcp 1540 ------- 0 0.0 1.0 18 29
+ 0.034876 1 0 ack 40 ------- 0 1.0 0.0 18 51
- 0.034876 1 0 ack 40 ------- 0 1.0 0.0 18 51
r 0.034944 1 0 ack 40 ------- 0 1.0 0.0 16 45
+ 0.034944 0 1 tcp 1540 ------- 0 0.0 1.0 33 52
+ 0.034944 0 1 tcp 1540 ------- 0 0.0 1.0 34 53
0.035 18
0.036 18
- 0.036072 0 1 tcp 1540 ------- 0 0.0 1.0 22 35
r 0.036108 0 1 tcp 1540 ------- 0 0.0 1.0 19 31
+ 0.036108 1 0 ack 40 ------- 0 1.0 0.0 19 54
- 0.036108 1 0 ack 40 ------- 0 1.0 0.0 19 54
r 0.036176 1 0 ack 40 ------- 0 1.0 0.0 17 48
+ 0.036176 0 1 tcp 1540 ------- 0 0.0 1.0 35 55
+ 0.036176 0 1 tcp 1540 ------- 0 0.0 1.0 36 56
0.037 19
- 0.037304 0 1 tcp 1540 ------- 0 0.0 1.0 23 37
r 0.03734 0 1 tcp 1540 ------- 0 0.0 1.0 20 32
+ 0.03734 1 0 ack 40 ------- 0 1.0 0.0 20 57
- 0.03734 1 0 ack 40 ------- 0 1.0 0.0 20 57
r 0.037408 1 0 ack 40 ------- 0 1.0 0.0 18 51
+ 0.037408 0 1 tcp 1540 ------- 0 0.0 1.0 37 58
+ 0.037408 0 1 tcp 1540 ------- 0 0.0 1.0 38 59
0.038 20
- 0.038536 0 1 tcp 1540 ------- 0 0.0 1.0 24 38
r 0.038572 0 1 tcp 1540 ------- 0 0.0 1.0 21 34
+ 0.038572 1 0 ack 40 ------- 0 1.0 0.0 21 60
- 0.038572 1 0 ack 40 ------- 0 1.0 0.0 21 60
r 0.03864 1 0 ack 40 ------- 0 1.0 0.0 19 54
+ 0.03864 0 1 tcp 1540 ------- 0 0.0 1.0 39 61
0.039 20.05
- 0.039768 0 1 tcp 1540 ------- 0 0.0 1.0 25 40
r 0.039804 0 1 tcp 1540 ------- 0 0.0 1.0 22 35
+ 0.039804 1 0 ack 40 ------- 0 1.0 0.0 22 62
- 0.039804 1 0 ack 40 ------- 0 1.0 0.0 22 62
r 0.039872 1 0 ack 40 ------- 0 1.0 0.0 20 57
+ 0.039872 0 1 tcp 1540 ------- 0 0.0 1.0 40 63
0.040 20.0999
- 0.041 0 1 tcp 1540 ------- 0 0.0 1.0 26 41
0.041 20.0999
r 0.041036 0 1 tcp 1540 ------- 0 0.0 1.0 23 37
+ 0.041036 1 0 ack 40 ------- 0 1.0 0.0 23 64
- 0.041036 1 0 ack 40 ------- 0 1.0 0.0 23 64
r 0.041104 1 0 ack 40 ------- 0 1.0 0.0 21 60
+ 0.041104 0 1 tcp 1540 ------- 0 0.0 1.0 41 65
0.042 20.1496
- 0.042232 0 1 tcp 1540 ------- 0 0.0 1.0 27 43
r 0.042268 0 1 tcp 1540 ------- 0 0.0 1.0 24 38
+ 0.042268 1 0 ack 40 ------- 0 1.0 0.0 24 66
- 0.042268 1 0 ack 40 ------- 0 1.0 0.0 24 66
r 0.042336 1 0 ack 40 ------- 0 1.0 0.0 22 62
+ 0.042336 0 1 tcp 1540 ------- 0 0.0 1.0 42 67
0.043 20.1993
- 0.043464 0 1 tcp 1540 ------- 0 0.0 1.0 28 44
r 0.0435 0 1 tcp 1540 ------- 0 0.0 1.0 25 40
+ 0.0435 1 0 ack 40 ------- 0 1.0 0.0 25 68
- 0.0435 1 0 ack 40 ------- 0 1.0 0.0 25 68
r 0.043568 1 0 ack 40 ------- 0 1.0 0.0 23 64
+ 0.043568 0 1 tcp 1540 ------- 0 0.0 1.0 43 69
0.044 20.2488
- 0.044696 0 1 tcp 1540 ------- 0 0.0 1.0 29 46
r 0.044732 0 1 tcp 1540 ------- 0 0.0 1.0 26 41
+ 0.044732 1 0 ack 40 ------- 0 1.0 0.0 26 70
- 0.044732 1 0 ack 40 ------- 0 1.0 0.0 26 70
r 0.0448 1 0 ack 40 ------- 0 1.0 0.0 24 66
+ 0.0448 0 1 tcp 1540 ------- 0 0.0 1.0 44 71
0.045 20.2981
- 0.045928 0 1 tcp 1540 ------- 0 0.0 1.0 30 47
r 0.045964 0 1 tcp 1540 ------- 0 0.0 1.0 27 43
+ 0.045964 1 0 ack 40 ------- 0 1.0 0.0 27 72
- 0.045964 1 0 ack 40 ------- 0 1.0 0.0 27 72
0.046 20.2981
r 0.046032 1 0 ack 40 ------- 0 1.0 0.0 25 68
+ 0.046032 0 1 tcp 1540 ------- 0 0.0 1.0 45 73
0.047 20.3474
- 0.04716 0 1 tcp 1540 ------- 0 0.0 1.0 31 49
r 0.047196 0 1 tcp 1540 ------- 0 0.0 1.0 28 44
+ 0.047196 1 0 ack 40 ------- 0 1.0 0.0 28 74
- 0.047196 1 0 ack 40 ------- 0 1.0 0.0 28 74
r 0.047264 1 0 ack 40 ------- 0 1.0 0.0 26 70
+ 0.047264 0 1 tcp 1540 ------- 0 0.0 1.0 46 75
0.048 20.3966
- 0.048392 0 1 tcp 1540 ------- 0 0.0 1.0 32 50
r 0.048428 0 1 tcp 1540 ------- 0 0.0 1.0 29 46
+ 0.048428 1 0 ack 40 ------- 0 1.0 0.0 29 76
- 0.048428 1 0 ack 40 ------- 0 1.0 0.0 29 76
r 0.048496 1 0 ack 40 ------- 0 1.0 0.0 27 72
+ 0.048496 0 1 tcp 1540 ------- 0 0.0 1.0 47 77
0.049 20.4456
- 0.049624 0 1 tcp 1540 ------- 0 0.0 1.0 33 52
r 0.04966 0 1 tcp 1540 ------- 0 0.0 1.0 30 47
+ 0.04966 1 0 ack 40 ------- 0 1.0 0.0 30 78
- 0.04966 1 0 ack 40 ------- 0 1.0 0.0 30 78
r 0.049728 1 0 ack 40 ------- 0 1.0 0.0 28 74
+ 0.049728 0 1 tcp 1540 ------- 0 0.0 1.0 48 79
0.050 20.4945
- 0.050856 0 1 tcp 1540 ------- 0 0.0 1.0 34 53
r 0.050892 0 1 tcp 1540 ------- 0 0.0 1.0 31 49
+ 0.050892 1 0 ack 40 ------- 0 1.0 0.0 31 80
- 0.050892 1 0 ack 40 ------- 0 1.0 0.0 31 80
r 0.05096 1 0 ack 40 ------- 0 1.0 0.0 29 76
+ 0.05096 0 1 tcp 1540 ------- 0 0.0 1.0 49 81
0.051 20.5433
0.052 20.5433
- 0.052088 0 1 tcp 1540 ------- 0 0.0 1.0 35 55
r 0.052124 0 1 tcp 1540 ------- 0 0.0 1.0 32 50
+ 0.052124 1 0 ack 40 ------- 0 1.0 0.0 32 82
- 0.052124 1 0 ack 40 ------- 0 1.0 0.0 32 82
r 0.052192 1 0 ack 40 ------- 0 1.0 0.0 30 78
+ 0.052192 0 1 tcp 1540 ------- 0 0.0 1.0 50 83
0.053 20.592
- 0.05332 0 1 tcp 1540 ------- 0 0.0 1.0 36 56
r 0.053356 0 1 tcp 1540 ------- 0 0.0 1.0 33 52
+ 0.053356 1 0 ack 40 ------- 0 1.0 0.0 33 84
- 0.053356 1 0 ack 40 ------- 0 1.0 0.0 33 84
r 0.053424 1 0 ack 40 ------- 0 1.0 0.0 31 80
+ 0.053424 0 1 tcp 1540 ------- 0 0.0 1.0 51 85
0.054 20.6405
- 0.054552 0 1 tcp 1540 ------- 0 0.0 1.0 37 58
r 0.054588 0 1 tcp 1540 ------- 0 0.0 1.0 34 53
+ 0.054588 1 0 ack 40 ------- 0 1.0 0.0 34 86
- 0.054588 1 0 ack 40 ------- 0 1.0 0.0 34 86
r 0.054656 1 0 ack 40 ------- 0 1.0 0.0 32 82
+ 0.054656 0 1 tcp 1540 ------- 0 0.0 1.0 52 87
0.055 20.689
- 0.055784 0 1 tcp 1540 ------- 0 0.0 1.0 38 59
r 0.05582 0 1 tcp 1540 ------- 0 0.0 1.0 35 55
+ 0.05582 1 0 ack 40 ------- 0 1.0 0.0 35 88
- 0.05582 1 0 ack 40 ------- 0 1.0 0.0 35 88
r 0.055888 1 0 ack 40 ------- 0 1.0 0.0 33 84
+ 0.055888 0 1 tcp 1540 ------- 0 0.0 1.0 53 89
0.056 20.7373
0.057 20.7373
- 0.057016 0 1 tcp 1540 ------- 0 0.0 1.0 39 61
r 0.057052 0 1 tcp 1540 ------- 0 0.0 1.0 36 56
+ 0.057052 1 0 ack 40 ------- 0 1.0 0.0 36 90
- 0.057052 1 0 ack 40 ------- 0 1.0 0.0 36 90
r 0.05712 1 0 ack 40 ------- 0 1.0 0.0 34 86
+ 0.05712 0 1 tcp 1540 ------- 0 0.0 1.0 54 91
0.058 20.7855
- 0.058248 0 1 tcp 1540 ------- 0 0.0 1.0 40 63
r 0.058284 0 1 tcp 1540 ------- 0 0.0 1.0 37 58
+ 0.058284 1 0 ack 40 ------- 0 1.0 0.0 37 92
- 0.058284 1 0 ack 40 ------- 0 1.0 0.0 37 92
r 0.058352 1 0 ack 40 ------- 0 1.0 0.0 35 88
+ 0.058352 0 1 tcp 1540 ------- 0 0.0 1.0 55 93
0.059 20.8336
- 0.05948 0 1 tcp 1540 ------- 0 0.0 1.0 41 65
r 0.059516 0 1 tcp 1540 ------- 0 0.0 1.0 38 59
+ 0.059516 1 0 ack 40 ------- 0 1.0 0.0 38 94
- 0.059516 1 0 ack 40 ------- 0 1.0 0.0 38 94
r 0.059584 1 0 ack 40 ------- 0 1.0 0.0 36 90
+ 0.059584 0 1 tcp 1540 ------- 0 0.0 1.0 56 95
0.060 20.8816
- 0.060712 0 1 tcp 1540 ------- 0 0.0 1.0 42 67
r 0.060748 0 1 tcp 1540 ------- 0 0.0 1.0 39 61
+ 0.060748 1 0 ack 40 ------- 0 1.0 0.0 39 96
- 0.060748 1 0 ack 40 ------- 0 1.0 0.0 39 96
r 0.060816 1 0 ack 40 ------- 0 1.0 0.0 37 92
+ 0.060816 0 1 tcp 1540 ------- 0 0.0 1.0 57 97
0.061 20.9295
- 0.061944 0 1 tcp 1540 ------- 0 0.0 1.0 43 69
r 0.06198 0 1 tcp 1540 ------- 0 0.0 1.0 40 63
+ 0.06198 1 0 ack 40 ------- 0 1.0 0.0 40 98
- 0.06198 1 0 ack 40 ------- 0 1.0 0.0 40 98
0.062 20.9295
r 0.062048 1 0 ack 40 ------- 0 1.0 0.0 38 94
+ 0.062048 0 1 tcp 1540 ------- 0 0.0 1.0 58 99
0.063 20.9773
- 0.063176 0 1 tcp 1540 ------- 0 0.0 1.0 44 71
r 0.063212 0 1 tcp 1540 ------- 0 0.0 1.0 41 65
+ 0.063212 1 0 ack 40 ------- 0 1.0 0.0 41 100
- 0.063212 1 0 ack 40 ------- 0 1.0 0.0 41 100
r 0.06328 1 0 ack 40 ------- 0 1.0 0.0 39 96
+ 0.06328 0 1 tcp 1540 ------- 0 0.0 1.0 59 101
0.064 21.025
- 0.064408 0 1 tcp 1540 ------- 0 0.0 1.0 45 73
r 0.064444 0 1 tcp 1540 ------- 0 0.0 1.0 42 67
+ 0.064444 1 0 ack 40 ------- 0 1.0 0.0 42 102
- 0.064444 1 0 ack 40 ------- 0 1.0 0.0 42 102
r 0.064512 1 0 ack 40 ------- 0 1.0 0.0 40 98
+ 0.064512 0 1 tcp 1540 ------- 0 0.0 1.0 60 103
0.065 21.0725
- 0.06564 0 1 tcp 1540 ------- 0 0.0 1.0 46 75
r 0.065676 0 1 tcp 1540 ------- 0 0.0 1.0 43 69
+ 0.065676 1 0 ack 40 ------- 0 1.0 0.0 43 104
- 0.065676 1 0 ack 40 ------- 0 1.0 0.0 43 104
r 0.065744 1 0 ack 40 ------- 0 1.0 0.0 41 100
+ 0.065744 0 1 tcp 1540 ------- 0 0.0 1.0 61 105
0.066 21.12
- 0.066872 0 1 tcp 1540 ------- 0 0.0 1.0 47 77
r 0.066908 0 1 tcp 1540 ------- 0 0.0 1.0 44 71
+ 0.066908 1 0 ack 40 ------- 0 1.0 0.0 44 106
- 0.066908 1 0 ack 40 ------- 0 1.0 0.0 44 106
r 0.066976 1 0 ack 40 ------- 0 1.0 0.0 42 102
+ 0.066976 0 1 tcp 1540 ------- 0 0.0 1.0 62 107
0.067 21.1674
0.068 21.1674
- 0.068104 0 1 tcp 1540 ------- 0 0.0 1.0 48 79
r 0.06814 0 1 tcp 1540 ------- 0 0.0 1.0 45 73
+ 0.06814 1 0 ack 40 ------- 0 1.0 0.0 45 108
- 0.06814 1 0 ack 40 ------- 0 1.0 0.0 45 108
r 0.068208 1 0 ack 40 ------- 0 1.0 0.0 43 104
+ 0.068208 0 1 tcp 1540 ------- 0 0.0 1.0 63 109
0.069 21.2146
- 0.069336 0 1 tcp 1540 ------- 0 0.0 1.0 49 81
r 0.069372 0 1 tcp 1540 ------- 0 0.0 1.0 46 75
+ 0.069372 1 0 ack 40 ------- 0 1.0 0.0 46 110
- 0.069372 1 0 ack 40 ------- 0 1.0 0.0 46 110
r 0.06944 1 0 ack 40 ------- 0 1.0 0.0 44 106
+ 0.06944 0 1 tcp 1540 ------- 0 0.0 1.0 64 111
0.070 21.2617
- 0.070568 0 1 tcp 1540 ------- 0 0.0 1.0 50 83
r 0.070604 0 1 tcp 1540 ------- 0 0.0 1.0 47 77
+ 0.070604 1 0 ack 40 ------- 0 1.0 0.0 47 112
- 0.070604 1 0 ack 40 ------- 0 1.0 0.0 47 112
r 0.070672 1 0 ack 40 ------- 0 1.0 0.0 45 108
+ 0.070672 0 1 tcp 1540 ------- 0 0.0 1.0 65 113
0.071 21.3088
- 0.0718 0 1 tcp 1540 ------- 0 0.0 1.0 51 85
r 0.071836 0 1 tcp 1540 ------- 0 0.0 1.0 48 79
+ 0.071836 1 0 ack 40 ------- 0 1.0 0.0 48 114
- 0.071836 1 0 ack 40 ------- 0 1.0 0.0 48 114
r 0.071904 1 0 ack 40 ------- 0 1.0 0.0 46 110
+ 0.071904 0 1 tcp 1540 ------- 0 0.0 1.0 66 115
0.072 21.3557
0.073 21.3557
- 0.073032 0 1 tcp 1540 ------- 0 0.0 1.0 52 87
r 0.073068 0 1 tcp 1540 ------- 0 0.0 1.0 49 81
+ 0.073068 1 0 ack 40 ------- 0 1.0 0.0 49 116
- 0.073068 1 0 ack 40 ------- 0 1.0 0.0 49 116
r 0.073136 1 0 ack 40 ------- 0 1.0 0.0 47 112
+ 0.073136 0 1 tcp 1540 ------- 0 0.0 1.0 67 117
0.074 21.4025
- 0.074264 0 1 tcp 1540 ------- 0 0.0 1.0 53 89
r 0.0743 0 1 tcp 1540 ------- 0 0.0 1.0 50 83
+ 0.0743 1 0 ack 40 ------- 0 1.0 0.0 50 118
- 0.0743 1 0 ack 40 ------- 0 1.0 0.0 50 118
r 0.074368 1 0 ack 40 ------- 0 1.0 0.0 48 114
+ 0.074368 0 1 tcp 1540 ------- 0 0.0 1.0 68 119
0.075 21.4492
- 0.075496 0 1 tcp 1540 ------- 0 0.0 1.0 54 91
r 0.075532 0 1 tcp 1540 ------- 0 0.0 1.0 51 85
+ 0.075532 1 0 ack 40 ------- 0 1.0 0.0 51 120
- 0.075532 1 0 ack 40 ------- 0 1.0 0.0 51 120
r 0.0756 1 0 ack 40 ------- 0 1.0 0.0 49 116
+ 0.0756 0 1 tcp 1540 ------- 0 0.0 1.0 69 121
0.076 21.4959
- 0.076728 0 1 tcp 1540 ------- 0 0.0 1.0 55 93
r 0.076764 0 1 tcp 1540 ------- 0 0.0 1.0 52 87
+ 0.076764 1 0 ack 40 ------- 0 1.0 0.0 52 122
- 0.076764 1 0 ack 40 ------- 0 1.0 0.0 52 122
r 0.076832 1 0 ack 40 ------- 0 1.0 0.0 50 118
+ 0.076832 0 1 tcp 1540 ------- 0 0.0 1.0 70 123
0.077 21.5424
- 0.07796 0 1 tcp 1540 ------- 0 0.0 1.0 56 95
r 0.077996 0 1 tcp 1540 ------- 0 0.0 1.0 53 89
+ 0.077996 1 0 ack 40 ------- 0 1.0 0.0 53 124
- 0.077996 1 0 ack 40 ------- 0 1.0 0.0 53 124
0.078 21.5424
r 0.078064 1 0 ack 40 ------- 0 1.0 0.0 51 120
+ 0.078064 0 1 tcp 1540 ------- 0 0.0 1.0 71 125
0.079 21.5888
- 0.079192 0 1 tcp 1540 ------- 0 0.0 1.0 57 97
r 0.079228 0 1 tcp 1540 ------- 0 0.0 1.0 54 91
+ 0.079228 1 0 ack 40 ------- 0 1.0 0.0 54 126
- 0.079228 1 0 ack 40 ------- 0 1.0 0.0 54 126
r 0.079296 1 0 ack 40 ------- 0 1.0 0.0 52 122
+ 0.079296 0 1 tcp 1540 ------- 0 0.0 1.0 72 127
0.080 21.6351
- 0.080424 0 1 tcp 1540 ------- 0 0.0 1.0 58 99
r 0.08046 0 1 tcp 1540 ------- 0 0.0 1.0 55 93
+ 0.08046 1 0 ack 40 ------- 0 1.0 0.0 55 128
- 0.08046 1 0 ack 40 ------- 0 1.0 0.0 55 128
r 0.080528 1 0 ack 40 ------- 0 1.0 0.0 53 124
+ 0.080528 0 1 tcp 1540 ------- 0 0.0 1.0 73 129
0.081 21.6813
- 0.081656 0 1 tcp 1540 ------- 0 0.0 1.0 59 101
r 0.081692 0 1 tcp 1540 ------- 0 0.0 1.0 56 95
+ 0.081692 1 0 ack 40 ------- 0 1.0 0.0 56 130
- 0.081692 1 0 ack 40 ------- 0 1.0 0.0 56 130
r 0.08176 1 0 ack 40 ------- 0 1.0 0.0 54 126
+ 0.08176 0 1 tcp 1540 ------- 0 0.0 1.0 74 131
0.082 21.7275
- 0.082888 0 1 tcp 1540 ------- 0 0.0 1.0 60 103
r 0.082924 0 1 tcp 1540 ------- 0 0.0 1.0 57 97
+ 0.082924 1 0 ack 40 ------- 0 1.0 0.0 57 132
- 0.082924 1 0 ack 40 ------- 0 1.0 0.0 57 132
r 0.082992 1 0 ack 40 ------- 0 1.0 0.0 55 128
+ 0.082992 0 1 tcp 1540 ------- 0 0.0 1.0 75 133
0.083 21.7735
0.084 21.7735
- 0.08412 0 1 tcp 1540 ------- 0 0.0 1.0 61 105
r 0.084156 0 1 tcp 1540 ------- 0 0.0 1.0 58 99
+ 0.084156 1 0 ack 40 ------- 0 1.0 0.0 58 134
- 0.084156 1 0 ack 40 ------- 0 1.0 0.0 58 134
r 0.084224 1 0 ack 40 ------- 0 1.0 0.0 56 130
+ 0.084224 0 1 tcp 1540 ------- 0 0.0 1.0 76 135
0.085 21.8194
- 0.085352 0 1 tcp 1540 ------- 0 0.0 1.0 62 107
r 0.085388 0 1 tcp 1540 ------- 0 0.0 1.0 59 101
+ 0.085388 1 0 ack 40 ------- 0 1.0 0.0 59 136
- 0.085388 1 0 ack 40 ------- 0 1.0 0.0 59 136
r 0.085456 1 0 ack 40 ------- 0 1.0 0.0 57 132
+ 0.085456 0 1 tcp 1540 ------- 0 0.0 1.0 77 137
0.086 21.8653
- 0.086584 0 1 tcp 1540 ------- 0 0.0 1.0 63 109
r 0.08662 0 1 tcp 1540 ------- 0 0.0 1.0 60 103
+ 0.08662 1 0 ack 40 ------- 0 1.0 0.0 60 138
- 0.08662 1 0 ack 40 ------- 0 1.0 0.0 60 138
r 0.086688 1 0 ack 40 ------- 0 1.0 0.0 58 134
+ 0.086688 0 1 tcp 1540 ------- 0 0.0 1.0 78 139
0.087 21.911
- 0.087816 0 1 tcp 1540 ------- 0 0.0 1.0 64 111
r 0.087852 0 1 tcp 1540 ------- 0 0.0 1.0 61 105
+ 0.087852 1 0 ack 40 ------- 0 1.0 0.0 61 140
- 0.087852 1 0 ack 40 ------- 0 1.0 0.0 61 140
r 0.08792 1 0 ack 40 ------- 0 1.0 0.0 59 136
+ 0.08792 0 1 tcp 1540 ------- 0 0.0 1.0 79 141
0.088 21.9566
0.089 21.9566
- 0.089048 0 1 tcp 1540 ------- 0 0.0 1.0 65 113
r 0.089084 0 1 tcp 1540 ------- 0 0.0 1.0 62 107
+ 0.089084 1 0 ack 40 ------- 0 1.0 0.0 62 142
- 0.089084 1 0 ack 40 ------- 0 1.0 0.0 62 142
r 0.089152 1 0 ack 40 ------- 0 1.0 0.0 60 138
+ 0.089152 0 1 tcp 1540 ------- 0 0.0 1.0 80 143
0.090 22.0022
- 0.09028 0 1 tcp 1540 ------- 0 0.0 1.0 66 115
r 0.090316 0 1 tcp 1540 ------- 0 0.0 1.0 63 109
+ 0.090316 1 0 ack 40 ------- 0 1.0 0.0 63 144
- 0.090316 1 0 ack 40 ------- 0 1.0 0.0 63 144
r 0.090384 1 0 ack 40 ------- 0 1.0 0.0 61 140
+ 0.090384 0 1 tcp 1540 ------- 0 0.0 1.0 81 145
0.091 22.0476
- 0.091512 0 1 tcp 1540 ------- 0 0.0 1.0 67 117
r 0.091548 0 1 tcp 1540 ------- 0 0.0 1.0 64 111
+ 0.091548 1 0 ack 40 ------- 0 1.0 0.0 64 146
- 0.091548 1 0 ack 40 ------- 0 1.0 0.0 64 146
r 0.091616 1 0 ack 40 ------- 0 1.0 0.0 62 142
+ 0.091616 0 1 tcp 1540 ------- 0 0.0 1.0 82 147
0.092 22.093
- 0.092744 0 1 tcp 1540 ------- 0 0.0 1.0 68 119
r 0.09278 0 1 tcp 1540 ------- 0 0.0 1.0 65 113
+ 0.09278 1 0 ack 40 ------- 0 1.0 0.0 65 148
- 0.09278 1 0 ack 40 ------- 0 1.0 0.0 65 148
r 0.092848 1 0 ack 40 ------- 0 1.0 0.0 63 144
+ 0.092848 0 1 tcp 1540 ------- 0 0.0 1.0 83 149
0.093 22.1382
- 0.093976 0 1 tcp 1540 ------- 0 0.0 1.0 69 121
0.094 22.1382
r 0.094012 0 1 tcp 1540 ------- 0 0.0 1.0 66 115
+ 0.094012 1 0 ack 40 ------- 0 1.0 0.0 66 150
- 0.094012 1 0 ack 40 ------- 0 1.0 0.0 66 150
r 0.09408 1 0 ack 40 ------- 0 1.0 0.0 64 146
+ 0.09408 0 1 tcp 1540 ------- 0 0.0 1.0 84 151
0.095 22.1834
- 0.095208 0 1 tcp 1540 ------- 0 0.0 1.0 70 123
r 0.095244 0 1 tcp 1540 ------- 0 0.0 1.0 67 117
+ 0.095244 1 0 ack 40 ------- 0 1.0 0.0 67 152
- 0.095244 1 0 ack 40 ------- 0 1.0 0.0 67 152
r 0.095312 1 0 ack 40 ------- 0 1.0 0.0 65 148
+ 0.095312 0 1 tcp 1540 ------- 0 0.0 1.0 85 153
0.096 22.2285
- 0.09644 0 1 tcp 1540 ------- 0 0.0 1.0 71 125
r 0.096476 0 1 tcp 1540 ------- 0 0.0 1.0 68 119
+ 0.096476 1 0 ack 40 ------- 0 1.0 0.0 68 154
- 0.096476 1 0 ack 40 ------- 0 1.0 0.0 68 154
r 0.096544 1 0 ack 40 ------- 0 1.0 0.0 66 150
+ 0.096544 0 1 tcp 1540 ------- 0 0.0 1.0 86 155
0.097 22.2735
- 0.097672 0 1 tcp 1540 ------- 0 0.0 1.0 72 127
r 0.097708 0 1 tcp 1540 ------- 0 0.0 1.0 69 121
+ 0.097708 1 0 ack 40 ------- 0 1.0 0.0 69 156
- 0.097708 1 0 ack 40 ------- 0 1.0 0.0 69 156
r 0.097776 1 0 ack 40 ------- 0 1.0 0.0 67 152
+ 0.097776 0 1 tcp 1540 ------- 0 0.0 1.0 87 157
0.098 22.3184
- 0.098904 0 1 tcp 1540 ------- 0 0.0 1.0 73 129
r 0.09894 0 1 tcp 1540 ------- 0 0.0 1.0 70 123
+ 0.09894 1 0 ack 40 ------- 0 1.0 0.0 70 158
- 0.09894 1 0 ack 40 ------- 0 1.0 0.0 70 158
0.099 22.3184
r 0.099008 1 0 ack 40 ------- 0 1.0 0.0 68 154
+ 0.099008 0 1 tcp 1540 ------- 0 0.0 1.0 88 159
0.100 22.3632
- 0.100136 0 1 tcp 1540 ------- 0 0.0 1.0 74 131
r 0.100172 0 1 tcp 1540 ------- 0 0.0 1.0 71 125
+ 0.100172 1 0 ack 40 ------- 0 1.0 0.0 71 160
- 0.100172 1 0 ack 40 ------- 0 1.0 0.0 71 160
r 0.10024 1 0 ack 40 ------- 0 1.0 0.0 69 156
+ 0.10024 0 1 tcp 1540 ------- 0 0.0 1.0 89 161
0.101 22.4079
- 0.101368 0 1 tcp 1540 ------- 0 0.0 1.0 75 133
r 0.101404 0 1 tcp 1540 ------- 0 0.0 1.0 72 127
+ 0.101404 1 0 ack 40 ------- 0 1.0 0.0 72 162
- 0.101404 1 0 ack 40 ------- 0 1.0 0.0 72 162
r 0.101472 1 0 ack 40 ------- 0 1.0 0.0 70 158
+ 0.101472 0 1 tcp 1540 ------- 0 0.0 1.0 90 163
0.102 22.4525
- 0.1026 0 1 tcp 1540 ------- 0 0.0 1.0 76 135
r 0.102636 0 1 tcp 1540 ------- 0 0.0 1.0 73 129
+ 0.102636 1 0 ack 40 ------- 0 1.0 0.0 73 164
- 0.102636 1 0 ack 40 ------- 0 1.0 0.0 73 164
r 0.102704 1 0 ack 40 ------- 0 1.0 0.0 71 160
+ 0.102704 0 1 tcp 1540 ------- 0 0.0 1.0 91 165
0.103 22.4971
- 0.103832 0 1 tcp 1540 ------- 0 0.0 1.0 77 137
r 0.103868 0 1 tcp 1540 ------- 0 0.0 1.0 74 131
+ 0.103868 1 0 ack 40 ------- 0 1.0 0.0 74 166
- 0.103868 1 0 ack 40 ------- 0 1.0 0.0 74 166
r 0.103936 1 0 ack 40 ------- 0 1.0 0.0 72 162
+ 0.103936 0 1 tcp 1540 ------- 0 0.0 1.0 92 167
0.104 22.5415
0.105 22.5415
- 0.105064 0 1 tcp 1540 ------- 0 0.0 1.0 78 139
r 0.1051 0 1 tcp 1540 ------- 0 0.0 1.0 75 133
+ 0.1051 1 0 ack 40 ------- 0 1.0 0.0 75 168
- 0.1051 1 0 ack 40 ------- 0 1.0 0.0 75 168
r 0.105168 1 0 ack 40 ------- 0 1.0 0.0 73 164
+ 0.105168 0 1 tcp 1540 ------- 0 0.0 1.0 93 169
0.106 22.5859
- 0.106296 0 1 tcp 1540 ------- 0 0.0 1.0 79 141
r 0.106332 0 1 tcp 1540 ------- 0 0.0 1.0 76 135
+ 0.106332 1 0 ack 40 ------- 0 1.0 0.0 76 170
- 0.106332 1 0 ack 40 ------- 0 1.0 0.0 76 170
r 0.1064 1 0 ack 40 ------- 0 1.0 0.0 74 166
+ 0.1064 0 1 tcp 1540 ------- 0 0.0 1.0 94 171
0.107 22.6301
- 0.107528 0 1 tcp 1540 ------- 0 0.0 1.0 80 143
r 0.107564 0 1 tcp 1540 ------- 0 0.0 1.0 77 137
+ 0.107564 1 0 ack 40 ------- 0 1.0 0.0 77 172
- 0.107564 1 0 ack 40 ------- 0 1.0 0.0 77 172
r 0.107632 1 0 ack 40 ------- 0 1.0 0.0 75 168
+ 0.107632 0 1 tcp 1540 ------- 0 0.0 1.0 95 173
0.108 22.6743
- 0.10876 0 1 tcp 1540 ------- 0 0.0 1.0 81 145
r 0.108796 0 1 tcp 1540 ------- 0 0.0 1.0 78 139
+ 0.108796 1 0 ack 40 ------- 0 1.0 0.0 78 174
- 0.108796 1 0 ack 40 ------- 0 1.0 0.0 78 174
r 0.108864 1 0 ack 40 ------- 0 1.0 0.0 76 170
+ 0.108864 0 1 tcp 1540 ------- 0 0.0 1.0 96 175
0.109 22.7184
- 0.109992 0 1 tcp 1540 ------- 0 0.0 1.0 82 147
0.110 22.7184
r 0.110028 0 1 tcp 1540 ------- 0 0.0 1.0 79 141
+ 0.110028 1 0 ack 40 ------- 0 1.0 0.0 79 176
- 0.110028 1 0 ack 40 ------- 0 1.0 0.0 79 176
r 0.110096 1 0 ack 40 ------- 0 1.0 0.0 77 172
+ 0.110096 0 1 tcp 1540 ------- 0 0.0 1.0 97 177
0.111 22.7625
- 0.111224 0 1 tcp 1540 ------- 0 0.0 1.0 83 149
r 0.11126 0 1 tcp 1540 ------- 0 0.0 1.0 80 143
+ 0.11126 1 0 ack 40 ------- 0 1.0 0.0 80 178
- 0.11126 1 0 ack 40 ------- 0 1.0 0.0 80 178
r 0.111328 1 0 ack 40 ------- 0 1.0 0.0 78 174
+ 0.111328 0 1 tcp 1540 ------- 0 0.0 1.0 98 179
0.112 22.8064
- 0.112456 0 1 tcp 1540 ------- 0 0.0 1.0 84 151
r 0.112492 0 1 tcp 1540 ------- 0 0.0 1.0 81 145
+ 0.112492 1 0 ack 40 ------- 0 1.0 0.0 81 180
- 0.112492 1 0 ack 40 ------- 0 1.0 0.0 81 180
r 0.11256 1 0 ack 40 ------- 0 1.0 0.0 79 176
+ 0.11256 0 1 tcp 1540 ------- 0 0.0 1.0 99 181
0.113 22.8502
- 0.113688 0 1 tcp 1540 ------- 0 0.0 1.0 85 153
r 0.113724 0 1 tcp 1540 ------- 0 0.0 1.0 82 147
+ 0.113724 1 0 ack 40 ------- 0 1.0 0.0 82 182
- 0.113724 1 0 ack 40 ------- 0 1.0 0.0 82 182
r 0.113792 1 0 ack 40 ------- 0 1.0 0.0 80 178
+ 0.113792 0 1 tcp 1540 ------- 0 0.0 1.0 100 183
0.114 22.894
- 0.11492 0 1 tcp 1540 ------- 0 0.0 1.0 86 155
r 0.114956 0 1 tcp 1540 ------- 0 0.0 1.0 83 149
+ 0.114956 1 0 ack 40 ------- 0 1.0 0.0 83 184
- 0.114956 1 0 ack 40 ------- 0 1.0 0.0 83 184
0.115 22.894
r 0.115024 1 0 ack 40 ------- 0 1.0 0.0 81 180
+ 0.115024 0 1 tcp 1540 ------- 0 0.0 1.0 101 185
0.116 22.9377
- 0.116152 0 1 tcp 1540 ------- 0 0.0 1.0 87 157
r 0.116188 0 1 tcp 1540 ------- 0 0.0 1.0 84 151
+ 0.116188 1 0 ack 40 ------- 0 1.0 0.0 84 186
- 0.116188 1 0 ack 40 ------- 0 1.0 0.0 84 186
r 0.116256 1 0 ack 40 ------- 0 1.0 0.0 82 182
+ 0.116256 0 1 tcp 1540 ------- 0 0.0 1.0 102 187
0.117 22.9813
- 0.117384 0 1 tcp 1540 ------- 0 0.0 1.0 88 159
r 0.11742 0 1 tcp 1540 ------- 0 0.0 1.0 85 153
+ 0.11742 1 0 ack 40 ------- 0 1.0 0.0 85 188
- 0.11742 1 0 ack 40 ------- 0 1.0 0.0 85 188
r 0.117488 1 0 ack 40 ------- 0 1.0 0.0 83 184
+ 0.117488 0 1 tcp 1540 ------- 0 0.0 1.0 103 189
0.118 23.0248
- 0.118616 0 1 tcp 1540 ------- 0 0.0 1.0 89 161
r 0.118652 0 1 tcp 1540 ------- 0 0.0 1.0 86 155
+ 0.118652 1 0 ack 40 ------- 0 1.0 0.0 86 190
- 0.118652 1 0 ack 40 ------- 0 1.0 0.0 86 190
r 0.11872 1 0 ack 40 ------- 0 1.0 0.0 84 186
+ 0.11872 0 1 tcp 1540 ------- 0 0.0 1.0 104 191
0.119 23.0682
- 0.119848 0 1 tcp 1540 ------- 0 0.0 1.0 90 163
r 0.119884 0 1 tcp 1540 ------- 0 0.0 1.0 87 157
+ 0.119884 1 0 ack 40 ------- 0 1.0 0.0 87 192
- 0.119884 1 0 ack 40 ------- 0 1.0 0.0 87 192
r 0.119952 1 0 ack 40 ------- 0 1.0 0.0 85 188
+ 0.119952 0 1 tcp 1540 ------- 0 0.0 1.0 105 193
0.120 23.1116
0.121 23.1116
- 0.12108 0 1 tcp 1540 ------- 0 0.0 1.0 91 165
r 0.121116 0 1 tcp 1540 ------- 0 0.0 1.0 88 159
+ 0.121116 1 0 ack 40 ------- 0 1.0 0.0 88 194
- 0.121116 1 0 ack 40 ------- 0 1.0 0.0 88 194
r 0.121184 1 0 ack 40 ------- 0 1.0 0.0 86 190
+ 0.121184 0 1 tcp 1540 ------- 0 0.0 1.0 106 195
0.122 23.1548
- 0.122312 0 1 tcp 1540 ------- 0 0.0 1.0 92 167
r 0.122348 0 1 tcp 1540 ------- 0 0.0 1.0 89 161
+ 0.122348 1 0 ack 40 ------- 0 1.0 0.0 89 196
- 0.122348 1 0 ack 40 ------- 0 1.0 0.0 89 196
r 0.122416 1 0 ack 40 ------- 0 1.0 0.0 87 192
+ 0.122416 0 1 tcp 1540 ------- 0 0.0 1.0 107 197
0.123 23.198
- 0.123544 0 1 tcp 1540 ------- 0 0.0 1.0 93 169
r 0.12358 0 1 tcp 1540 ------- 0 0.0 1.0 90 163
+ 0.12358 1 0 ack 40 ------- 0 1.0 0.0 90 198
- 0.12358 1 0 ack 40 ------- 0 1.0 0.0 90 198
r 0.123648 1 0 ack 40 ------- 0 1.0 0.0 88 194
+ 0.123648 0 1 tcp 1540 ------- 0 0.0 1.0 108 199
0.124 23.2411
- 0.124776 0 1 tcp 1540 ------- 0 0.0 1.0 94 171
r 0.124812 0 1 tcp 1540 ------- 0 0.0 1.0 91 165
+ 0.124812 1 0 ack 40 ------- 0 1.0 0.0 91 200
- 0.124812 1 0 ack 40 ------- 0 1.0 0.0 91 200
r 0.12488 1 0 ack 40 ------- 0 1.0 0.0 89 196
+ 0.12488 0 1 tcp 1540 ------- 0 0.0 1.0 109 201
0.125 23.2842
0.126 23.2842
- 0.126008 0 1 tcp 1540 ------- 0 0.0 1.0 95 173
r 0.126044 0 1 tcp 1540 ------- 0 0.0 1.0 92 167
+ 0.126044 1 0 ack 40 ------- 0 1.0 0.0 92 202
- 0.126044 1 0 ack 40 ------- 0 1.0 0.0 92 202
r 0.126112 1 0 ack 40 ------- 0 1.0 0.0 90 198
+ 0.126112 0 1 tcp 1540 ------- 0 0.0 1.0 110 203
0.127 23.3271
- 0.12724 0 1 tcp 1540 ------- 0 0.0 1.0 96 175
r 0.127276 0 1 tcp 1540 ------- 0 0.0 1.0 93 169
+ 0.127276 1 0 ack 40 ------- 0 1.0 0.0 93 204
- 0.127276 1 0 ack 40 ------- 0 1.0 0.0 93 204
r 0.127344 1 0 ack 40 ------- 0 1.0 0.0 91 200
+ 0.127344 0 1 tcp 1540 ------- 0 0.0 1.0 111 205
0.128 23.37
- 0.128472 0 1 tcp 1540 ------- 0 0.0 1.0 97 177
r 0.128508 0 1 tcp 1540 ------- 0 0.0 1.0 94 171
+ 0.128508 1 0 ack 40 ------- 0 1.0 0.0 94 206
- 0.128508 1 0 ack 40 ------- 0 1.0 0.0 94 206
r 0.128576 1 0 ack 40 ------- 0 1.0 0.0 92 202
+ 0.128576 0 1 tcp 1540 ------- 0 0.0 1.0 112 207
0.129 23.4128
- 0.129704 0 1 tcp 1540 ------- 0 0.0 1.0 98 179
r 0.12974 0 1 tcp 1540 ------- 0 0.0 1.0 95 173
+ 0.12974 1 0 ack 40 ------- 0 1.0 0.0 95 208
- 0.12974 1 0 ack 40 ------- 0 1.0 0.0 95 208
r 0.129808 1 0 ack 40 ------- 0 1.0 0.0 93 204
+ 0.129808 0 1 tcp 1540 ------- 0 0.0 1.0 113 209
0.130 23.4555
- 0.130936 0 1 tcp 1540 ------- 0 0.0 1.0 99 181
r 0.130972 0 1 tcp 1540 ------- 0 0.0 1.0 96 175
+ 0.130972 1 0 ack 40 ------- 0 1.0 0.0 96 210
- 0.130972 1 0 ack 40 ------- 0 1.0 0.0 96 210
0.131 23.4555
r 0.13104 1 0 ack 40 ------- 0 1.0 0.0 94 206
+ 0.13104 0 1 tcp 1540 ------- 0 0.0 1.0 114 211
0.132 23.4981