+ 0 0 1 tcp 40 ------- 0 0.0 1.0 0 0
- 0 0 1 tcp 40 ------- 0 0.0 1.0 0 0
0.000 1
0.001 1
0.002 1
0.003 1
0.004 1
0.005 1
0.006 1
0.007 1
0.008 1
0.009 1
0.010 1
0.011 1
0.012 1
0.013 1
0.014 1
0.015 1
0.016 1
0.017 1
0.018 1
0.019 1
0.020 1
0.021 1
0.022 1
0.023 1
0.024 1
0.025 1
0.026 1
0.027 1
0.028 1
0.029 1
0.030 1
0.031 1
0.032 1
0.033 1
0.034 1
0.035 1
0.036 1
0.037 1
0.038 1
0.039 1
0.040 1
r 0.040032 0 1 tcp 40 ------- 0 0.0 1.0 0 0
+ 0.040032 1 0 ack 40 ------- 0 1.0 0.0 0 1
- 0.040032 1 0 ack 40 ------- 0 1.0 0.0 0 1
0.041 1
0.042 1
0.043 1
0.044 1
0.045 1
0.046 1
0.047 1
0.048 1
0.049 1
0.050 1
0.051 1
0.052 1
0.053 1
0.054 1
0.055 1
0.056 1
0.057 1
0.058 1
0.059 1
0.060 1
0.061 1
0.062 1
0.063 1
0.064 1
0.065 1
0.066 1
0.067 1
0.068 1
0.069 1
0.070 1
0.071 1
0.072 1
0.073 1
0.074 1
0.075 1
0.076 1
0.077 1
0.078 1
0.079 1
0.080 1
r 0.080064 1 0 ack 40 ------- 0 1.0 0.0 0 1
+ 0.080064 0 1 tcp 1540 ------- 0 0.0 1.0 1 2
- 0.080064 0 1 tcp 1540 ------- 0 0.0 1.0 1 2
+ 0.080064 0 1 tcp 1540 ------- 0 0.0 1.0 2 3
0.081 2
- 0.081296 0 1 tcp 1540 ------- 0 0.0 1.0 2 3
0.082 2
0.083 2
0.084 2
0.085 2
0.086 2
0.087 2
0.088 2
0.089 2
0.090 2
0.091 2
0.092 2
0.093 2
0.094 2
0.095 2
0.096 2
0.097 2
0.098 2
0.099 2
0.100 2
0.101 2
0.102 2
0.103 2
0.104 2
0.105 2
0.106 2
0.107 2
0.108 2
0.109 2
0.110 2
0.111 2
0.112 2
0.113 2
0.114 2
0.115 2
0.116 2
0.117 2
0.118 2
0.119 2
0.120 2
0.121 2
r 0.121296 0 1 tcp 1540 ------- 0 0.0 1.0 1 2
+ 0.121296 1 0 ack 40 ------- 0 1.0 0.0 1 4
- 0.121296 1 0 ack 40 ------- 0 1.0 0.0 1 4
0.122 2
r 0.122528 0 1 tcp 1540 ------- 0 0.0 1.0 2 3
+ 0.122528 1 0 ack 40 ------- 0 1.0 0.0 2 5
- 0.122528 1 0 ack 40 ------- 0 1.0 0.0 2 5
0.123 2
0.124 2
0.125 2
0.126 2
0.127 2
0.128 2
0.129 2
0.130 2
0.131 2
0.132 2
0.133 2
0.134 2
0.135 2
0.136 2
0.137 2
0.138 2
0.139 2
0.140 2
0.141 2
0.142 2
0.143 2
0.144 2
0.145 2
0.146 2
0.147 2
0.148 2
0.149 2
0.150 2
0.151 2
0.152 2
0.153 2
0.154 2
0.155 2
0.156 2
0.157 2
0.158 2
0.159 2
0.160 2
0.161 2
r 0.161328 1 0 ack 40 ------- 0 1.0 0.0 1 4
+ 0.161328 0 1 tcp 1540 ------- 0 0.0 1.0 3 6
- 0.161328 0 1 tcp 1540 ------- 0 0.0 1.0 3 6
+ 0.161328 0 1 tcp 1540 ------- 0 0.0 1.0 4 7
0.162 3
r 0.16256 1 0 ack 40 ------- 0 1.0 0.0 2 5
+ 0.16256 0 1 tcp 1540 ------- 0 0.0 1.0 5 8
+ 0.16256 0 1 tcp 1540 ------- 0 0.0 1.0 6 9
- 0.16256 0 1 tcp 1540 ------- 0 0.0 1.0 4 7
0.163 4
- 0.163792 0 1 tcp 1540 ------- 0 0.0 1.0 5 8
0.164 4
0.165 4
- 0.165024 0 1 tcp 1540 ------- 0 0.0 1.0 6 9
0.166 4
0.167 4
0.168 4
0.169 4
0.170 4
0.171 4
0.172 4
0.173 4
0.174 4
0.175 4
0.176 4
0.177 4
0.178 4
0.179 4
0.180 4
0.181 4
0.182 4
0.183 4
0.184 4
0.185 4
0.186 4
0.187 4
0.188 4
0.189 4
0.190 4
0.191 4
0.192 4
0.193 4
0.194 4
0.195 4
0.196 4
0.197 4
0.198 4
0.199 4
0.200 4
0.201 4
0.202 4
r 0.20256 0 1 tcp 1540 ------- 0 0.0 1.0 3 6
+ 0.20256 1 0 ack 40 ------- 0 1.0 0.0 3 10
- 0.20256 1 0 ack 40 ------- 0 1.0 0.0 3 10
0.203 4
r 0.203792 0 1 tcp 1540 ------- 0 0.0 1.0 4 7
+ 0.203792 1 0 ack 40 ------- 0 1.0 0.0 4 11
- 0.203792 1 0 ack 40 ------- 0 1.0 0.0 4 11
0.204 4
0.205 4
r 0.205024 0 1 tcp 1540 ------- 0 0.0 1.0 5 8
+ 0.205024 1 0 ack 40 ------- 0 1.0 0.0 5 12
- 0.205024 1 0 ack 40 ------- 0 1.0 0.0 5 12
0.206 4
r 0.206256 0 1 tcp 1540 ------- 0 0.0 1.0 6 9
+ 0.206256 1 0 ack 40 ------- 0 1.0 0.0 6 13
- 0.206256 1 0 ack 40 ------- 0 1.0 0.0 6 13
0.207 4
0.208 4
0.209 4
0.210 4
0.211 4
0.212 4
0.213 4
0.214 4
0.215 4
0.216 4
0.217 4
0.218 4
0.219 4
0.220 4
0.221 4
0.222 4
0.223 4
0.224 4
0.225 4
0.226 4
0.227 4
0.228 4
0.229 4
0.230 4
0.231 4
0.232 4
0.233 4
0.234 4
0.235 4
0.236 4
0.237 4
0.238 4
0.239 4
0.240 4
0.241 4
0.242 4
r 0.242592 1 0 ack 40 ------- 0 1.0 0.0 3 10
+ 0.242592 0 1 tcp 1540 ------- 0 0.0 1.0 7 14
- 0.242592 0 1 tcp 1540 ------- 0 0.0 1.0 7 14
+ 0.242592 0 1 tcp 1540 ------- 0 0.0 1.0 8 15
0.243 5
r 0.243824 1 0 ack 40 ------- 0 1.0 0.0 4 11
+ 0.243824 0 1 tcp 1540 ------- 0 0.0 1.0 9 16
- 0.243824 0 1 tcp 1540 ------- 0 0.0 1.0 8 15
0.244 5
0.245 5
r 0.245056 1 0 ack 40 ------- 0 1.0 0.0 5 12
+ 0.245056 0 1 tcp 1540 ------- 0 0.0 1.0 10 17
- 0.245056 0 1 tcp 1540 ------- 0 0.0 1.0 9 16
0.246 5
r 0.246288 1 0 ack 40 ------- 0 1.0 0.0 6 13
+ 0.246288 0 1 tcp 1540 ------- 0 0.0 1.0 11 18
- 0.246288 0 1 tcp 1540 ------- 0 0.0 1.0 10 17
0.247 5
- 0.24752 0 1 tcp 1540 ------- 0 0.0 1.0 11 18
0.248 5
0.249 5
0.250 5
0.251 5
0.252 5
0.253 5
0.254 5
0.255 5
0.256 5
0.257 5
0.258 5
0.259 5
0.260 5
0.261 5
0.262 5
0.263 5
0.264 5
0.265 5
0.266 5
0.267 5
0.268 5
0.269 5
0.270 5
0.271 5
0.272 5
0.273 5
0.274 5
0.275 5
0.276 5
0.277 5
0.278 5
0.279 5
0.280 5
0.281 5
0.282 5
0.283 5
r 0.283824 0 1 tcp 1540 ------- 0 0.0 1.0 7 14
+ 0.283824 1 0 ack 40 ------- 0 1.0 0.0 7 19
- 0.283824 1 0 ack 40 ------- 0 1.0 0.0 7 19
0.284 5
0.285 5
r 0.285056 0 1 tcp 1540 ------- 0 0.0 1.0 8 15
+ 0.285056 1 0 ack 40 ------- 0 1.0 0.0 8 20
- 0.285056 1 0 ack 40 ------- 0 1.0 0.0 8 20
0.286 5
r 0.286288 0 1 tcp 1540 ------- 0 0.0 1.0 9 16
+ 0.286288 1 0 ack 40 ------- 0 1.0 0.0 9 21
- 0.286288 1 0 ack 40 ------- 0 1.0 0.0 9 21
0.287 5
r 0.28752 0 1 tcp 1540 ------- 0 0.0 1.0 10 17
+ 0.28752 1 0 ack 40 ------- 0 1.0 0.0 10 22
- 0.28752 1 0 ack 40 ------- 0 1.0 0.0 10 22
0.288 5
r 0.288752 0 1 tcp 1540 ------- 0 0.0 1.0 11 18
+ 0.288752 1 0 ack 40 ------- 0 1.0 0.0 11 23
- 0.288752 1 0 ack 40 ------- 0 1.0 0.0 11 23
0.289 5
0.290 5
0.291 5
0.292 5
0.293 5
0.294 5
0.295 5
0.296 5
0.297 5
0.298 5
0.299 5
0.300 5
0.301 5
0.302 5
0.303 5
0.304 5
0.305 5
0.306 5
0.307 5
0.308 5
0.309 5
0.310 5
0.311 5
0.312 5
0.313 5
0.314 5
0.315 5
0.316 5
0.317 5
0.318 5
0.319 5
0.320 5
0.321 5
0.322 5
0.323 5
r 0.323856 1 0 ack 40 ------- 0 1.0 0.0 7 19
+ 0.323856 0 1 tcp 1540 ------- 0 0.0 1.0 12 24
- 0.323856 0 1 tcp 1540 ------- 0 0.0 1.0 12 24
0.324 5
0.325 5
r 0.325088 1 0 ack 40 ------- 0 1.0 0.0 8 20
+ 0.325088 0 1 tcp 1540 ------- 0 0.0 1.0 13 25
- 0.325088 0 1 tcp 1540 ------- 0 0.0 1.0 13 25
0.326 5
r 0.32632 1 0 ack 40 ------- 0 1.0 0.0 9 21
+ 0.32632 0 1 tcp 1540 ------- 0 0.0 1.0 14 26
- 0.32632 0 1 tcp 1540 ------- 0 0.0 1.0 14 26
0.327 5
r 0.327552 1 0 ack 40 ------- 0 1.0 0.0 10 22
+ 0.327552 0 1 tcp 1540 ------- 0 0.0 1.0 15 27
- 0.327552 0 1 tcp 1540 ------- 0 0.0 1.0 15 27
0.328 5
r 0.328784 1 0 ack 40 ------- 0 1.0 0.0 11 23
+ 0.328784 0 1 tcp 1540 ------- 0 0.0 1.0 16 28
- 0.328784 0 1 tcp 1540 ------- 0 0.0 1.0 16 28
0.329 5
0.330 5
0.331 5
0.332 5
0.333 5
0.334 5
0.335 5
0.336 5
0.337 5
0.338 5
0.339 5
0.340 5
0.341 5
0.342 5
0.343 5
0.344 5
0.345 5
0.346 5
0.347 5
0.348 5
0.349 5
0.350 5
0.351 5
0.352 5
0.353 5
0.354 5
0.355 5
0.356 5
0.357 5
0.358 5
0.359 5
0.360 5
0.361 5
0.362 5
0.363 5
0.364 5
0.365 5
r 0.365088 0 1 tcp 1540 ------- 0 0.0 1.0 12 24
+ 0.365088 1 0 ack 40 ------- 0 1.0 0.0 12 29
- 0.365088 1 0 ack 40 ------- 0 1.0 0.0 12 29
0.366 5
r 0.36632 0 1 tcp 1540 ------- 0 0.0 1.0 13 25
+ 0.36632 1 0 ack 40 ------- 0 1.0 0.0 13 30
- 0.36632 1 0 ack 40 ------- 0 1.0 0.0 13 30
0.367 5
r 0.367552 0 1 tcp 1540 ------- 0 0.0 1.0 14 26
+ 0.367552 1 0 ack 40 ------- 0 1.0 0.0 14 31
- 0.367552 1 0 ack 40 ------- 0 1.0 0.0 14 31
0.368 5
r 0.368784 0 1 tcp 1540 ------- 0 0.0 1.0 15 27
+ 0.368784 1 0 ack 40 ------- 0 1.0 0.0 15 32
- 0.368784 1 0 ack 40 ------- 0 1.0 0.0 15 32
0.369 5
0.370 5
r 0.370016 0 1 tcp 1540 ------- 0 0.0 1.0 16 28
+ 0.370016 1 0 ack 40 ------- 0 1.0 0.0 16 33
- 0.370016 1 0 ack 40 ------- 0 1.0 0.0 16 33
0.371 5
0.372 5
0.373 5
0.374 5
0.375 5
0.376 5
0.377 5
0.378 5
0.379 5
0.380 5
0.381 5
0.382 5
0.383 5
0.384 5
0.385 5
0.386 5
0.387 5
0.388 5
0.389 5
0.390 5
0.391 5
0.392 5
0.393 5
0.394 5
0.395 5
0.396 5
0.397 5
0.398 5
0.399 5
0.400 5
0.401 5
0.402 5
0.403 5
0.404 5
0.405 5
r 0.40512 1 0 ack 40 ------- 0 1.0 0.0 12 29
+ 0.40512 0 1 tcp 1540 ------- 0 0.0 1.0 17 34
- 0.40512 0 1 tcp 1540 ------- 0 0.0 1.0 17 34
0.406 5
r 0.406352 1 0 ack 40 ------- 0 1.0 0.0 13 30
+ 0.406352 0 1 tcp 1540 ------- 0 0.0 1.0 18 35
- 0.406352 0 1 tcp 1540 ------- 0 0.0 1.0 18 35
0.407 5
r 0.407584 1 0 ack 40 ------- 0 1.0 0.0 14 31
+ 0.407584 0 1 tcp 1540 ------- 0 0.0 1.0 19 36
- 0.407584 0 1 tcp 1540 ------- 0 0.0 1.0 19 36
0.408 5
r 0.408816 1 0 ack 40 ------- 0 1.0 0.0 15 32
+ 0.408816 0 1 tcp 1540 ------- 0 0.0 1.0 20 37
- 0.408816 0 1 tcp 1540 ------- 0 0.0 1.0 20 37
0.409 5
0.410 5
r 0.410048 1 0 ack 40 ------- 0 1.0 0.0 16 33
+ 0.410048 0 1 tcp 1540 ------- 0 0.0 1.0 21 38
- 0.410048 0 1 tcp 1540 ------- 0 0.0 1.0 21 38
0.411 5
0.412 5
0.413 5
0.414 5
0.415 5
0.416 5
0.417 5
0.418 5
0.419 5
0.420 5
0.421 5
0.422 5
0.423 5
0.424 5
0.425 5
0.426 5
0.427 5
0.428 5
0.429 5
0.430 5
0.431 5
0.432 5
0.433 5
0.434 5
0.435 5
0.436 5
0.437 5
0.438 5
0.439 5
0.440 5
0.441 5
0.442 5
0.443 5
0.444 5
0.445 5
0.446 5
r 0.446352 0 1 tcp 1540 ------- 0 0.0 1.0 17 34
+ 0.446352 1 0 ack 40 ------- 0 1.0 0.0 17 39
- 0.446352 1 0 ack 40 ------- 0 1.0 0.0 17 39
0.447 5
r 0.447584 0 1 tcp 1540 ------- 0 0.0 1.0 18 35
+ 0.447584 1 0 ack 40 ------- 0 1.0 0.0 18 40
- 0.447584 1 0 ack 40 ------- 0 1.0 0.0 18 40
0.448 5
r 0.448816 0 1 tcp 1540 ------- 0 0.0 1.0 19 36
+ 0.448816 1 0 ack 40 ------- 0 1.0 0.0 19 41
- 0.448816 1 0 ack 40 ------- 0 1.0 0.0 19 41
0.449 5
0.450 5
r 0.450048 0 1 tcp 1540 ------- 0 0.0 1.0 20 37
+ 0.450048 1 0 ack 40 ------- 0 1.0 0.0 20 42
- 0.450048 1 0 ack 40 ------- 0 1.0 0.0 20 42
0.451 5
r 0.45128 0 1 tcp 1540 ------- 0 0.0 1.0 21 38
+ 0.45128 1 0 ack 40 ------- 0 1.0 0.0 21 43
- 0.45128 1 0 ack 40 ------- 0 1.0 0.0 21 43
0.452 5
0.453 5
0.454 5
0.455 5
0.456 5
0.457 5
0.458 5
0.459 5
0.460 5
0.461 5
0.462 5
0.463 5
0.464 5
0.465 5
0.466 5
0.467 5
0.468 5
0.469 5
0.470 5
0.471 5
0.472 5
0.473 5
0.474 5
0.475 5
0.476 5
0.477 5
0.478 5
0.479 5
0.480 5
0.481 5
0.482 5
0.483 5
0.484 5
0.485 5
0.486 5
r 0.486384 1 0 ack 40 ------- 0 1.0 0.0 17 39
+ 0.486384 0 1 tcp 1540 ------- 0 0.0 1.0 22 44
- 0.486384 0 1 tcp 1540 ------- 0 0.0 1.0 22 44
0.487 5
r 0.487616 1 0 ack 40 ------- 0 1.0 0.0 18 40
+ 0.487616 0 1 tcp 1540 ------- 0 0.0 1.0 23 45
- 0.487616 0 1 tcp 1540 ------- 0 0.0 1.0 23 45
0.488 5
r 0.488848 1 0 ack 40 ------- 0 1.0 0.0 19 41
+ 0.488848 0 1 tcp 1540 ------- 0 0.0 1.0 24 46
- 0.488848 0 1 tcp 1540 ------- 0 0.0 1.0 24 46
0.489 5
0.490 5
r 0.49008 1 0 ack 40 ------- 0 1.0 0.0 20 42
+ 0.49008 0 1 tcp 1540 ------- 0 0.0 1.0 25 47
- 0.49008 0 1 tcp 1540 ------- 0 0.0 1.0 25 47
0.491 5
r 0.491312 1 0 ack 40 ------- 0 1.0 0.0 21 43
+ 0.491312 0 1 tcp 1540 ------- 0 0.0 1.0 26 48
- 0.491312 0 1 tcp 1540 ------- 0 0.0 1.0 26 48
0.492 5
0.493 5
0.494 5
0.495 5
0.496 5
0.497 5
0.498 5
0.499 5
0.500 5
0.501 5
0.502 5
0.503 5
0.504 5
0.505 5
0.506 5
0.507 5
0.508 5
0.509 5
0.510 5
0.511 5
0.512 5
0.513 5
0.514 5
0.515 5
0.516 5
0.517 5
0.518 5
0.519 5
0.520 5
0.521 5
0.522 5
0.523 5
0.524 5
0.525 5
0.526 5
0.527 5
r 0.527616 0 1 tcp 1540 ------- 0 0.0 1.0 22 44
+ 0.527616 1 0 ack 40 ------- 0 1.0 0.0 22 49
- 0.527616 1 0 ack 40 ------- 0 1.0 0.0 22 49
0.528 5
r 0.528848 0 1 tcp 1540 ------- 0 0.0 1.0 23 45
+ 0.528848 1 0 ack 40 ------- 0 1.0 0.0 23 50
- 0.528848 1 0 ack 40 ------- 0 1.0 0.0 23 50
0.529 5
0.530 5
r 0.53008 0 1 tcp 1540 ------- 0 0.0 1.0 24 46
+ 0.53008 1 0 ack 40 ------- 0 1.0 0.0 24 51
- 0.53008 1 0 ack 40 ------- 0 1.0 0.0 24 51
0.531 5
r 0.531312 0 1 tcp 1540 ------- 0 0.0 1.0 25 47
+ 0.531312 1 0 ack 40 ------- 0 1.0 0.0 25 52
- 0.531312 1 0 ack 40 ------- 0 1.0 0.0 25 52
0.532 5
r 0.532544 0 1 tcp 1540 ------- 0 0.0 1.0 26 48
+ 0.532544 1 0 ack 40 ------- 0 1.0 0.0 26 53
- 0.532544 1 0 ack 40 ------- 0 1.0 0.0 26 53
0.533 5
0.534 5
0.535 5
0.536 5
0.537 5
0.538 5
0.539 5
0.540 5
0.541 5
0.542 5
0.543 5
0.544 5
0.545 5
0.546 5
0.547 5
0.548 5
0.549 5
0.550 5
0.551 5
0.552 5
0.553 5
0.554 5
0.555 5
0.556 5
0.557 5
0.558 5
0.559 5
0.560 5
0.561 5
0.562 5
0.563 5
0.564 5
0.565 5
0.566 5
0.567 5
r 0.567648 1 0 ack 40 ------- 0 1.0 0.0 22 49
+ 0.567648 0 1 tcp 1540 ------- 0 0.0 1.0 27 54
- 0.567648 0 1 tcp 1540 ------- 0 0.0 1.0 27 54
0.568 5
r 0.56888 1 0 ack 40 ------- 0 1.0 0.0 23 50
+ 0.56888 0 1 tcp 1540 ------- 0 0.0 1.0 28 55
- 0.56888 0 1 tcp 1540 ------- 0 0.0 1.0 28 55
0.569 5
0.570 5
r 0.570112 1 0 ack 40 ------- 0 1.0 0.0 24 51
+ 0.570112 0 1 tcp 1540 ------- 0 0.0 1.0 29 56
- 0.570112 0 1 tcp 1540 ------- 0 0.0 1.0 29 56
0.571 5
r 0.571344 1 0 ack 40 ------- 0 1.0 0.0 25 52
+ 0.571344 0 1 tcp 1540 ------- 0 0.0 1.0 30 57
- 0.571344 0 1 tcp 1540 ------- 0 0.0 1.0 30 57
0.572 5
r 0.572576 1 0 ack 40 ------- 0 1.0 0.0 26 53
+ 0.572576 0 1 tcp 1540 ------- 0 0.0 1.0 31 58
- 0.572576 0 1 tcp 1540 ------- 0 0.0 1.0 31 58
0.573 5
0.574 5
0.575 5
0.576 5
0.577 5
0.578 5
0.579 5
0.580 5
0.581 5
0.582 5
0.583 5
0.584 5
0.585 5
0.586 5
0.587 5
0.588 5
0.589 5
0.590 5
0.591 5
0.592 5
0.593 5
0.594 5
0.595 5
0.596 5
0.597 5
0.598 5
0.599 5
0.600 5
0.601 5
0.602 5
0.603 5
0.604 5
0.605 5
0.606 5
0.607 5
0.608 5
r 0.60888 0 1 tcp 1540 ------- 0 0.0 1.0 27 54
+ 0.60888 1 0 ack 40 ------- 0 1.0 0.0 27 59
- 0.60888 1 0 ack 40 ------- 0 1.0 0.0 27 59
0.609 5
0.610 5
r 0.610112 0 1 tcp 1540 ------- 0 0.0 1.0 28 55
+ 0.610112 1 0 ack 40 ------- 0 1.0 0.0 28 60
- 0.610112 1 0 ack 40 ------- 0 1.0 0.0 28 60
0.611 5
r 0.611344 0 1 tcp 1540 ------- 0 0.0 1.0 29 56
+ 0.611344 1 0 ack 40 ------- 0 1.0 0.0 29 61
- 0.611344 1 0 ack 40 ------- 0 1.0 0.0 29 61
0.612 5
r 0.612576 0 1 tcp 1540 ------- 0 0.0 1.0 30 57
+ 0.612576 1 0 ack 40 ------- 0 1.0 0.0 30 62
- 0.612576 1 0 ack 40 ------- 0 1.0 0.0 30 62
0.613 5
r 0.613808 0 1 tcp 1540 ------- 0 0.0 1.0 31 58
+ 0.613808 1 0 ack 40 ------- 0 1.0 0.0 31 63
- 0.613808 1 0 ack 40 ------- 0 1.0 0.0 31 63
0.614 5
0.615 5
0.616 5
0.617 5
0.618 5
0.619 5
0.620 5
0.621 5
0.622 5
0.623 5
0.624 5
0.625 5
0.626 5
0.627 5
0.628 5
0.629 5
0.630 5
0.631 5
0.632 5
0.633 5
0.634 5
0.635 5
0.636 5
0.637 5
0.638 5
0.639 5
0.640 5
0.641 5
0.642 5
0.643 5
0.644 5
0.645 5
0.646 5
0.647 5
0.648 5
r 0.648912 1 0 ack 40 ------- 0 1.0 0.0 27 59
+ 0.648912 0 1 tcp 1540 ------- 0 0.0 1.0 32 64
- 0.648912 0 1 tcp 1540 ------- 0 0.0 1.0 32 64
0.649 5
0.650 5
r 0.650144 1 0 ack 40 ------- 0 1.0 0.0 28 60
+ 0.650144 0 1 tcp 1540 ------- 0 0.0 1.0 33 65
- 0.650144 0 1 tcp 1540 ------- 0 0.0 1.0 33 65
0.651 5
r 0.651376 1 0 ack 40 ------- 0 1.0 0.0 29 61
+ 0.651376 0 1 tcp 1540 ------- 0 0.0 1.0 34 66
- 0.651376 0 1 tcp 1540 ------- 0 0.0 1.0 34 66
0.652 5
r 0.652608 1 0 ack 40 ------- 0 1.0 0.0 30 62
+ 0.652608 0 1 tcp 1540 ------- 0 0.0 1.0 35 67
- 0.652608 0 1 tcp 1540 ------- 0 0.0 1.0 35 67
0.653 5
r 0.65384 1 0 ack 40 ------- 0 1.0 0.0 31 63
+ 0.65384 0 1 tcp 1540 ------- 0 0.0 1.0 36 68
- 0.65384 0 1 tcp 1540 ------- 0 0.0 1.0 36 68
0.654 5
0.655 5
0.656 5
0.657 5
0.658 5
0.659 5
0.660 5
0.661 5
0.662 5
0.663 5
0.664 5
0.665 5
0.666 5
0.667 5
0.668 5
0.669 5
0.670 5
0.671 5
0.672 5
0.673 5
0.674 5
0.675 5
0.676 5
0.677 5
0.678 5
0.679 5
0.680 5
0.681 5
0.682 5
0.683 5
0.684 5
0.685 5
0.686 5
0.687 5
0.688 5
0.689 5
0.690 5
r 0.690144 0 1 tcp 1540 ------- 0 0.0 1.0 32 64
+ 0.690144 1 0 ack 40 ------- 0 1.0 0.0 32 69
- 0.690144 1 0 ack 40 ------- 0 1.0 0.0 32 69
0.691 5
r 0.691376 0 1 tcp 1540 ------- 0 0.0 1.0 33 65
+ 0.691376 1 0 ack 40 ------- 0 1.0 0.0 33 70
- 0.691376 1 0 ack 40 ------- 0 1.0 0.0 33 70
0.692 5
r 0.692608 0 1 tcp 1540 ------- 0 0.0 1.0 34 66
+ 0.692608 1 0 ack 40 ------- 0 1.0 0.0 34 71
- 0.692608 1 0 ack 40 ------- 0 1.0 0.0 34 71
0.693 5
r 0.69384 0 1 tcp 1540 ------- 0 0.0 1.0 35 67
+ 0.69384 1 0 ack 40 ------- 0 1.0 0.0 35 72
- 0.69384 1 0 ack 40 ------- 0 1.0 0.0 35 72
0.694 5
0.695 5
r 0.695072 0 1 tcp 1540 ------- 0 0.0 1.0 36 68
+ 0.695072 1 0 ack 40 ------- 0 1.0 0.0 36 73
- 0.695072 1 0 ack 40 ------- 0 1.0 0.0 36 73
0.696 5
0.697 5
0.698 5
0.699 5
0.700 5
0.701 5
0.702 5
0.703 5
0.704 5
0.705 5
0.706 5
0.707 5
0.708 5
0.709 5
0.710 5
0.711 5
0.712 5
0.713 5
0.714 5
0.715 5
0.716 5
0.717 5
0.718 5
0.719 5
0.720 5
0.721 5
0.722 5
0.723 5
0.724 5
0.725 5
0.726 5
0.727 5
0.728 5
0.729 5
0.730 5
r 0.730176 1 0 ack 40 ------- 0 1.0 0.0 32 69
0.731 5
r 0.731408 1 0 ack 40 ------- 0 1.0 0.0 33 70
0.732 5
r 0.73264 1 0 ack 40 ------- 0 1.0 0.0 34 71
0.733 5
r 0.733872 1 0 ack 40 ------- 0 1.0 0.0 35 72
0.734 5
0.735 5
r 0.735104 1 0 ack 40 ------- 0 1.0 0.0 36 73
0.736 5
0.737 5
0.738 5
0.739 5
0.740 5
0.741 5
0.742 5
0.743 5
0.744 5
0.745 5
0.746 5
0.747 5
0.748 5
0.749 5
0.750 5
0.751 5
0.752 5
0.753 5
0.754 5
0.755 5
0.756 5
0.757 5
0.758 5
0.759 5
0.760 5
0.761 5
0.762 5
0.763 5
0.764 5
0.765 5
0.766 5
0.767 5
0.768 5
0.769 5
0.770 5
0.771 5
0.772 5
0.773 5
0.774 5
0.775 5
0.776 5
0.777 5
0.778 5
0.779 5
0.780 5
0.781 5
0.782 5
0.783 5
0.784 5
0.785 5
0.786 5
0.787 5
0.788 5
0.789 5
0.790 5
0.791 5
0.792 5
0.793 5
0.794 5
0.795 5
0.796 5
0.797 5
0.798 5
0.799 5
0.800 5
0.801 5
0.802 5
0.803 5
0.804 5
0.805 5
0.806 5
0.807 5
0.808 5
0.809 5
0.810 5
0.811 5
0.812 5
0.813 5
0.814 5
0.815 5
0.816 5
0.817 5
0.818 5
0.819 5
0.820 5
0.821 5
0.822 5
0.823 5
0.824 5
0.825 5
0.826 5
0.827 5
0.828 5
0.829 5
0.830 5
0.831 5
0.832 5
0.833 5
0.834 5
0.835 5
0.836 5
0.837 5
0.838 5
0.839 5
0.840 5
0.841 5
0.842 5
0.843 5
0.844 5
0.845 5
0.846 5
0.847 5
0.848 5
0.849 5
0.850 5
0.851 5
0.852 5
0.853 5
0.854 5
0.855 5
0.856 5
0.857 5
0.858 5
0.859 5
0.860 5
0.861 5
0.862 5
0.863 5
0.864 5
0.865 5
0.866 5
0.867 5
0.868 5
0.869 5
0.870 5
0.871 5
0.872 5
0.873 5
0.874 5
0.875 5
0.876 5
0.877 5
0.878 5
0.879 5
0.880 5
0.881 5
0.882 5
0.883 5
0.884 5
0.885 5
0.886 5
0.887 5
0.888 5
0.889 5
0.890 5
0.891 5
0.892 5
0.893 5
0.894 5
0.895 5
0.896 5
0.897 5
0.898 5
0.899 5
0.900 5
0.901 5
0.902 5
0.903 5
0.904 5
0.905 5
0.906 5
0.907 5
0.908 5
0.909 5
0.910 5
0.911 5
0.912 5
0.913 5
0.914 5
0.915 5
0.916 5
0.917 5
0.918 5
0.919 5
0.920 5
0.921 5
0.922 5
0.923 5
0.924 5
0.925 5
0.926 5
0.927 5
0.928 5
0.929 5
0.930 5
0.931 5
0.932 5
0.933 5
0.934 5
0.935 5
0.936 1
0.937 1
0.938 1
0.939 1
0.940 1
0.941 1
0.942 1
0.943 1
0.944 1
0.945 1
0.946 1
0.947 1
0.948 1
0.949 1
0.950 1
0.951 1
0.952 1
0.953 1
0.954 1
0.955 1
0.956 1
0.957 1
0.958 1
0.959 1
0.960 1
0.961 1
0.962 1
0.963 1
0.964 1
0.965 1
0.966 1
0.967 1
0.968 1
0.969 1
0.970 1
0.971 1
0.972 1
0.973 1
0.974 1
0.975 1
0.976 1
0.977 1
0.978 1
0.979 1
0.980 1
0.981 1
0.982 1
0.983 1
0.984 1
0.985 1
0.986 1
0.987 1
0.988 1
0.989 1
0.990 1
0.991 1
0.992 1
0.993 1
0.994 1
0.995 1
0.996 1
0.997 1
0.998 1
0.999 1
