+ 0 0 1 tcp 40 ------- 0 0.0 1.0 0 0
- 0 0 1 tcp 40 ------- 0 0.0 1.0 0 0
0.000 1
0.001 1
0.002 1
0.003 1
0.004 1
0.005 1
r 0.005032 0 1 tcp 40 ------- 0 0.0 1.0 0 0
+ 0.005032 1 0 ack 40 ------- 0 1.0 0.0 0 1
- 0.005032 1 0 ack 40 ------- 0 1.0 0.0 0 1
0.006 1
0.007 1
0.008 1
0.009 1
0.010 1
r 0.010064 1 0 ack 40 ------- 0 1.0 0.0 0 1
+ 0.010064 0 1 tcp 1540 ------- 0 0.0 1.0 1 2
- 0.010064 0 1 tcp 1540 ------- 0 0.0 1.0 1 2
+ 0.010064 0 1 tcp 1540 ------- 0 0.0 1.0 2 3
0.011 2
- 0.011296 0 1 tcp 1540 ------- 0 0.0 1.0 2 3
0.012 2
0.013 2
0.014 2
0.015 2
0.016 2
r 0.016296 0 1 tcp 1540 ------- 0 0.0 1.0 1 2
+ 0.016296 1 0 ack 40 ------- 0 1.0 0.0 1 4
- 0.016296 1 0 ack 40 ------- 0 1.0 0.0 1 4
0.017 2
r 0.017528 0 1 tcp 1540 ------- 0 0.0 1.0 2 3
+ 0.017528 1 0 ack 40 ------- 0 1.0 0.0 2 5
- 0.017528 1 0 ack 40 ------- 0 1.0 0.0 2 5
0.018 2
0.019 2
0.020 2
0.021 2
r 0.021328 1 0 ack 40 ------- 0 1.0 0.0 1 4
+ 0.021328 0 1 tcp 1540 ------- 0 0.0 1.0 3 6
- 0.021328 0 1 tcp 1540 ------- 0 0.0 1.0 3 6
+ 0.021328 0 1 tcp 1540 ------- 0 0.0 1.0 4 7
0.022 3
- 0.02256 0 1 tcp 1540 ------- 0 0.0 1.0 4 7
r 0.02256 1 0 ack 40 ------- 0 1.0 0.0 2 5
+ 0.02256 0 1 tcp 1540 ------- 0 0.0 1.0 5 8
+ 0.02256 0 1 tcp 1540 ------- 0 0.0 1.0 6 9
0.023 4
- 0.023792 0 1 tcp 1540 ------- 0 0.0 1.0 5 8
0.024 4
0.025 4
- 0.025024 0 1 tcp 1540 ------- 0 0.0 1.0 6 9
0.026 4
0.027 4
r 0.02756 0 1 tcp 1540 ------- 0 0.0 1.0 3 6
+ 0.02756 1 0 ack 40 ------- 0 1.0 0.0 3 10
- 0.02756 1 0 ack 40 ------- 0 1.0 0.0 3 10
0.028 4
r 0.028792 0 1 tcp 1540 ------- 0 0.0 1.0 4 7
+ 0.028792 1 0 ack 40 ------- 0 1.0 0.0 4 11
- 0.028792 1 0 ack 40 ------- 0 1.0 0.0 4 11
0.029 4
0.030 4
r 0.030024 0 1 tcp 1540 ------- 0 0.0 1.0 5 8
+ 0.030024 1 0 ack 40 ------- 0 1.0 0.0 5 12
- 0.030024 1 0 ack 40 ------- 0 1.0 0.0 5 12
0.031 4
r 0.031256 0 1 tcp 1540 ------- 0 0.0 1.0 6 9
+ 0.031256 1 0 ack 40 ------- 0 1.0 0.0 6 13
- 0.031256 1 0 ack 40 ------- 0 1.0 0.0 6 13
0.032 4
r 0.032592 1 0 ack 40 ------- 0 1.0 0.0 3 10
+ 0.032592 0 1 tcp 1540 ------- 0 0.0 1.0 7 14
- 0.032592 0 1 tcp 1540 ------- 0 0.0 1.0 7 14
+ 0.032592 0 1 tcp 1540 ------- 0 0.0 1.0 8 15
0.033 5
r 0.033824 1 0 ack 40 ------- 0 1.0 0.0 4 11
+ 0.033824 0 1 tcp 1540 ------- 0 0.0 1.0 9 16
+ 0.033824 0 1 tcp 1540 ------- 0 0.0 1.0 10 17
- 0.033824 0 1 tcp 1540 ------- 0 0.0 1.0 8 15
0.034 6
0.035 6
- 0.035056 0 1 tcp 1540 ------- 0 0.0 1.0 9 16
r 0.035056 1 0 ack 40 ------- 0 1.0 0.0 5 12
+ 0.035056 0 1 tcp 1540 ------- 0 0.0 1.0 11 18
+ 0.035056 0 1 tcp 1540 ------- 0 0.0 1.0 12 19
0.036 7
- 0.036288 0 1 tcp 1540 ------- 0 0.0 1.0 10 17
r 0.036288 1 0 ack 40 ------- 0 1.0 0.0 6 13
+ 0.036288 0 1 tcp 1540 ------- 0 0.0 1.0 13 20
+ 0.036288 0 1 tcp 1540 ------- 0 0.0 1.0 14 21
0.037 8
- 0.03752 0 1 tcp 1540 ------- 0 0.0 1.0 11 18
0.038 8
- 0.038752 0 1 tcp 1540 ------- 0 0.0 1.0 12 19
r 0.038824 0 1 tcp 1540 ------- 0 0.0 1.0 7 14
+ 0.038824 1 0 ack 40 ------- 0 1.0 0.0 7 22
- 0.038824 1 0 ack 40 ------- 0 1.0 0.0 7 22
0.039 8
- 0.039984 0 1 tcp 1540 ------- 0 0.0 1.0 13 20
0.040 8
r 0.040056 0 1 tcp 1540 ------- 0 0.0 1.0 8 15
+ 0.040056 1 0 ack 40 ------- 0 1.0 0.0 8 23
- 0.040056 1 0 ack 40 ------- 0 1.0 0.0 8 23
0.041 8
- 0.041216 0 1 tcp 1540 ------- 0 0.0 1.0 14 21
r 0.041288 0 1 tcp 1540 ------- 0 0.0 1.0 9 16
+ 0.041288 1 0 ack 40 ------- 0 1.0 0.0 9 24
- 0.041288 1 0 ack 40 ------- 0 1.0 0.0 9 24
0.042 8
r 0.04252 0 1 tcp 1540 ------- 0 0.0 1.0 10 17
+ 0.04252 1 0 ack 40 ------- 0 1.0 0.0 10 25
- 0.04252 1 0 ack 40 ------- 0 1.0 0.0 10 25
0.043 8
r 0.043752 0 1 tcp 1540 ------- 0 0.0 1.0 11 18
+ 0.043752 1 0 ack 40 ------- 0 1.0 0.0 11 26
- 0.043752 1 0 ack 40 ------- 0 1.0 0.0 11 26
r 0.043856 1 0 ack 40 ------- 0 1.0 0.0 7 22
+ 0.043856 0 1 tcp 1540 ------- 0 0.0 1.0 15 27
- 0.043856 0 1 tcp 1540 ------- 0 0.0 1.0 15 27
+ 0.043856 0 1 tcp 1540 ------- 0 0.0 1.0 16 28
0.044 9
r 0.044984 0 1 tcp 1540 ------- 0 0.0 1.0 12 19
+ 0.044984 1 0 ack 40 ------- 0 1.0 0.0 12 29
- 0.044984 1 0 ack 40 ------- 0 1.0 0.0 12 29
0.045 9
r 0.045088 1 0 ack 40 ------- 0 1.0 0.0 8 23
+ 0.045088 0 1 tcp 1540 ------- 0 0.0 1.0 17 30
+ 0.045088 0 1 tcp 1540 ------- 0 0.0 1.0 18 31
- 0.045088 0 1 tcp 1540 ------- 0 0.0 1.0 16 28
0.046 10
r 0.046216 0 1 tcp 1540 ------- 0 0.0 1.0 13 20
+ 0.046216 1 0 ack 40 ------- 0 1.0 0.0 13 32
- 0.046216 1 0 ack 40 ------- 0 1.0 0.0 13 32
r 0.04632 1 0 ack 40 ------- 0 1.0 0.0 9 24
+ 0.04632 0 1 tcp 1540 ------- 0 0.0 1.0 19 33
+ 0.04632 0 1 tcp 1540 ------- 0 0.0 1.0 20 34
- 0.04632 0 1 tcp 1540 ------- 0 0.0 1.0 17 30
0.047 11
r 0.047448 0 1 tcp 1540 ------- 0 0.0 1.0 14 21
+ 0.047448 1 0 ack 40 ------- 0 1.0 0.0 14 35
- 0.047448 1 0 ack 40 ------- 0 1.0 0.0 14 35
r 0.047552 1 0 ack 40 ------- 0 1.0 0.0 10 25
+ 0.047552 0 1 tcp 1540 ------- 0 0.0 1.0 21 36
+ 0.047552 0 1 tcp 1540 ------- 0 0.0 1.0 22 37
- 0.047552 0 1 tcp 1540 ------- 0 0.0 1.0 18 31
0.048 12
r 0.048784 1 0 ack 40 ------- 0 1.0 0.0 11 26
+ 0.048784 0 1 tcp 1540 ------- 0 0.0 1.0 23 38
+ 0.048784 0 1 tcp 1540 ------- 0 0.0 1.0 24 39
- 0.048784 0 1 tcp 1540 ------- 0 0.0 1.0 19 33
0.049 13
0.050 13
r 0.050016 1 0 ack 40 ------- 0 1.0 0.0 12 29
+ 0.050016 0 1 tcp 1540 ------- 0 0.0 1.0 25 40
+ 0.050016 0 1 tcp 1540 ------- 0 0.0 1.0 26 41
- 0.050016 0 1 tcp 1540 ------- 0 0.0 1.0 20 34
r 0.050088 0 1 tcp 1540 ------- 0 0.0 1.0 15 27
+ 0.050088 1 0 ack 40 ------- 0 1.0 0.0 15 42
- 0.050088 1 0 ack 40 ------- 0 1.0 0.0 15 42
0.051 14
r 0.051248 1 0 ack 40 ------- 0 1.0 0.0 13 32
+ 0.051248 0 1 tcp 1540 ------- 0 0.0 1.0 27 43
+ 0.051248 0 1 tcp 1540 ------- 0 0.0 1.0 28 44
- 0.051248 0 1 tcp 1540 ------- 0 0.0 1.0 21 36
r 0.05132 0 1 tcp 1540 ------- 0 0.0 1.0 16 28
+ 0.05132 1 0 ack 40 ------- 0 1.0 0.0 16 45
- 0.05132 1 0 ack 40 ------- 0 1.0 0.0 16 45
0.052 15
r 0.05248 1 0 ack 40 ------- 0 1.0 0.0 14 35
+ 0.05248 0 1 tcp 1540 ------- 0 0.0 1.0 29 46
+ 0.05248 0 1 tcp 1540 ------- 0 0.0 1.0 30 47
- 0.05248 0 1 tcp 1540 ------- 0 0.0 1.0 22 37
r 0.052552 0 1 tcp 1540 ------- 0 0.0 1.0 17 30
+ 0.052552 1 0 ack 40 ------- 0 1.0 0.0 17 48
- 0.052552 1 0 ack 40 ------- 0 1.0 0.0 17 48
0.053 16
- 0.053712 0 1 tcp 1540 ------- 0 0.0 1.0 23 38
r 0.053784 0 1 tcp 1540 ------- 0 0.0 1.0 18 31
+ 0.053784 1 0 ack 40 ------- 0 1.0 0.0 18 49
- 0.053784 1 0 ack 40 ------- 0 1.0 0.0 18 49
0.054 16
- 0.054944 0 1 tcp 1540 ------- 0 0.0 1.0 24 39
0.055 16
r 0.055016 0 1 tcp 1540 ------- 0 0.0 1.0 19 33
+ 0.055016 1 0 ack 40 ------- 0 1.0 0.0 19 50
- 0.055016 1 0 ack 40 ------- 0 1.0 0.0 19 50
r 0.05512 1 0 ack 40 ------- 0 1.0 0.0 15 42
+ 0.05512 0 1 tcp 1540 ------- 0 0.0 1.0 31 51
+ 0.05512 0 1 tcp 1540 ------- 0 0.0 1.0 32 52
0.056 17
- 0.056176 0 1 tcp 1540 ------- 0 0.0 1.0 25 40
r 0.056248 0 1 tcp 1540 ------- 0 0.0 1.0 20 34
+ 0.056248 1 0 ack 40 ------- 0 1.0 0.0 20 53
- 0.056248 1 0 ack 40 ------- 0 1.0 0.0 20 53
r 0.056352 1 0 ack 40 ------- 0 1.0 0.0 16 45
+ 0.056352 0 1 tcp 1540 ------- 0 0.0 1.0 33 54
+ 0.056352 0 1 tcp 1540 ------- 0 0.0 1.0 34 55
0.057 18
- 0.057408 0 1 tcp 1540 ------- 0 0.0 1.0 26 41
r 0.05748 0 1 tcp 1540 ------- 0 0.0 1.0 21 36
+ 0.05748 1 0 ack 40 ------- 0 1.0 0.0 21 56
- 0.05748 1 0 ack 40 ------- 0 1.0 0.0 21 56
r 0.057584 1 0 ack 40 ------- 0 1.0 0.0 17 48
+ 0.057584 0 1 tcp 1540 ------- 0 0.0 1.0 35 57
+ 0.057584 0 1 tcp 1540 ------- 0 0.0 1.0 36 58
0.058 19
- 0.05864 0 1 tcp 1540 ------- 0 0.0 1.0 27 43
r 0.058712 0 1 tcp 1540 ------- 0 0.0 1.0 22 37
+ 0.058712 1 0 ack 40 ------- 0 1.0 0.0 22 59
- 0.058712 1 0 ack 40 ------- 0 1.0 0.0 22 59
r 0.058816 1 0 ack 40 ------- 0 1.0 0.0 18 49
+ 0.058816 0 1 tcp 1540 ------- 0 0.0 1.0 37 60
+ 0.058816 0 1 tcp 1540 ------- 0 0.0 1.0 38 61
0.059 20
- 0.059872 0 1 tcp 1540 ------- 0 0.0 1.0 28 44
r 0.059944 0 1 tcp 1540 ------- 0 0.0 1.0 23 38
+ 0.059944 1 0 ack 40 ------- 0 1.0 0.0 23 62
- 0.059944 1 0 ack 40 ------- 0 1.0 0.0 23 62
0.060 20
r 0.060048 1 0 ack 40 ------- 0 1.0 0.0 19 50
+ 0.060048 0 1 tcp 1540 ------- 0 0.0 1.0 39 63
0.061 20.05
- 0.061104 0 1 tcp 1540 ------- 0 0.0 1.0 29 46
r 0.061176 0 1 tcp 1540 ------- 0 0.0 1.0 24 39
+ 0.061176 1 0 ack 40 ------- 0 1.0 0.0 24 64
- 0.061176 1 0 ack 40 ------- 0 1.0 0.0 24 64
r 0.06128 1 0 ack 40 ------- 0 1.0 0.0 20 53
+ 0.06128 0 1 tcp 1540 ------- 0 0.0 1.0 40 65
0.062 20.0999
- 0.062336 0 1 tcp 1540 ------- 0 0.0 1.0 30 47
r 0.062408 0 1 tcp 1540 ------- 0 0.0 1.0 25 40
+ 0.062408 1 0 ack 40 ------- 0 1.0 0.0 25 66
- 0.062408 1 0 ack 40 ------- 0 1.0 0.0 25 66
r 0.062512 1 0 ack 40 ------- 0 1.0 0.0 21 56
+ 0.062512 0 1 tcp 1540 ------- 0 0.0 1.0 41 67
0.063 20.1496
- 0.063568 0 1 tcp 1540 ------- 0 0.0 1.0 31 51
r 0.06364 0 1 tcp 1540 ------- 0 0.0 1.0 26 41
+ 0.06364 1 0 ack 40 ------- 0 1.0 0.0 26 68
- 0.06364 1 0 ack 40 ------- 0 1.0 0.0 26 68
r 0.063744 1 0 ack 40 ------- 0 1.0 0.0 22 59
+ 0.063744 0 1 tcp 1540 ------- 0 0.0 1.0 42 69
0.064 20.1993
- 0.0648 0 1 tcp 1540 ------- 0 0.0 1.0 32 52
r 0.064872 0 1 tcp 1540 ------- 0 0.0 1.0 27 43
+ 0.064872 1 0 ack 40 ------- 0 1.0 0.0 27 70
- 0.064872 1 0 ack 40 ------- 0 1.0 0.0 27 70
r 0.064976 1 0 ack 40 ------- 0 1.0 0.0 23 62
+ 0.064976 0 1 tcp 1540 ------- 0 0.0 1.0 43 71
0.065 20.2488
0.066 20.2488
- 0.066032 0 1 tcp 1540 ------- 0 0.0 1.0 33 54
r 0.066104 0 1 tcp 1540 ------- 0 0.0 1.0 28 44
+ 0.066104 1 0 ack 40 ------- 0 1.0 0.0 28 72
- 0.066104 1 0 ack 40 ------- 0 1.0 0.0 28 72
r 0.066208 1 0 ack 40 ------- 0 1.0 0.0 24 64
+ 0.066208 0 1 tcp 1540 ------- 0 0.0 1.0 44 73
0.067 20.2981
- 0.067264 0 1 tcp 1540 ------- 0 0.0 1.0 34 55
r 0.067336 0 1 tcp 1540 ------- 0 0.0 1.0 29 46
+ 0.067336 1 0 ack 40 ------- 0 1.0 0.0 29 74
- 0.067336 1 0 ack 40 ------- 0 1.0 0.0 29 74
r 0.06744 1 0 ack 40 ------- 0 1.0 0.0 25 66
+ 0.06744 0 1 tcp 1540 ------- 0 0.0 1.0 45 75
0.068 20.3474
- 0.068496 0 1 tcp 1540 ------- 0 0.0 1.0 35 57
r 0.068568 0 1 tcp 1540 ------- 0 0.0 1.0 30 47
+ 0.068568 1 0 ack 40 ------- 0 1.0 0.0 30 76
- 0.068568 1 0 ack 40 ------- 0 1.0 0.0 30 76
r 0.068672 1 0 ack 40 ------- 0 1.0 0.0 26 68
+ 0.068672 0 1 tcp 1540 ------- 0 0.0 1.0 46 77
0.069 20.3966
- 0.069728 0 1 tcp 1540 ------- 0 0.0 1.0 36 58
r 0.0698 0 1 tcp 1540 ------- 0 0.0 1.0 31 51
+ 0.0698 1 0 ack 40 ------- 0 1.0 0.0 31 78
- 0.0698 1 0 ack 40 ------- 0 1.0 0.0 31 78
r 0.069904 1 0 ack 40 ------- 0 1.0 0.0 27 70
+ 0.069904 0 1 tcp 1540 ------- 0 0.0 1.0 47 79
0.070 20.4456
- 0.07096 0 1 tcp 1540 ------- 0 0.0 1.0 37 60
0.071 20.4456
r 0.071032 0 1 tcp 1540 ------- 0 0.0 1.0 32 52
+ 0.071032 1 0 ack 40 ------- 0 1.0 0.0 32 80
- 0.071032 1 0 ack 40 ------- 0 1.0 0.0 32 80
r 0.071136 1 0 ack 40 ------- 0 1.0 0.0 28 72
+ 0.071136 0 1 tcp 1540 ------- 0 0.0 1.0 48 81
0.072 20.4945
- 0.072192 0 1 tcp 1540 ------- 0 0.0 1.0 38 61
r 0.072264 0 1 tcp 1540 ------- 0 0.0 1.0 33 54
+ 0.072264 1 0 ack 40 ------- 0 1.0 0.0 33 82
- 0.072264 1 0 ack 40 ------- 0 1.0 0.0 33 82
r 0.072368 1 0 ack 40 ------- 0 1.0 0.0 29 74
+ 0.072368 0 1 tcp 1540 ------- 0 0.0 1.0 49 83
0.073 20.5433
- 0.073424 0 1 tcp 1540 ------- 0 0.0 1.0 39 63
r 0.073496 0 1 tcp 1540 ------- 0 0.0 1.0 34 55
+ 0.073496 1 0 ack 40 ------- 0 1.0 0.0 34 84
- 0.073496 1 0 ack 40 ------- 0 1.0 0.0 34 84
r 0.0736 1 0 ack 40 ------- 0 1.0 0.0 30 76
+ 0.0736 0 1 tcp 1540 ------- 0 0.0 1.0 50 85
0.074 20.592
- 0.074656 0 1 tcp 1540 ------- 0 0.0 1.0 40 65
r 0.074728 0 1 tcp 1540 ------- 0 0.0 1.0 35 57
+ 0.074728 1 0 ack 40 ------- 0 1.0 0.0 35 86
- 0.074728 1 0 ack 40 ------- 0 1.0 0.0 35 86
r 0.074832 1 0 ack 40 ------- 0 1.0 0.0 31 78
+ 0.074832 0 1 tcp 1540 ------- 0 0.0 1.0 51 87
0.075 20.6405
- 0.075888 0 1 tcp 1540 ------- 0 0.0 1.0 41 67
r 0.07596 0 1 tcp 1540 ------- 0 0.0 1.0 36 58
+ 0.07596 1 0 ack 40 ------- 0 1.0 0.0 36 88
- 0.07596 1 0 ack 40 ------- 0 1.0 0.0 36 88
0.076 20.6405
r 0.076064 1 0 ack 40 ------- 0 1.0 0.0 32 80
+ 0.076064 0 1 tcp 1540 ------- 0 0.0 1.0 52 89
0.077 20.689
- 0.07712 0 1 tcp 1540 ------- 0 0.0 1.0 42 69
r 0.077192 0 1 tcp 1540 ------- 0 0.0 1.0 37 60
+ 0.077192 1 0 ack 40 ------- 0 1.0 0.0 37 90
- 0.077192 1 0 ack 40 ------- 0 1.0 0.0 37 90
r 0.077296 1 0 ack 40 ------- 0 1.0 0.0 33 82
+ 0.077296 0 1 tcp 1540 ------- 0 0.0 1.0 53 91
0.078 20.7373
- 0.078352 0 1 tcp 1540 ------- 0 0.0 1.0 43 71
r 0.078424 0 1 tcp 1540 ------- 0 0.0 1.0 38 61
+ 0.078424 1 0 ack 40 ------- 0 1.0 0.0 38 92
- 0.078424 1 0 ack 40 ------- 0 1.0 0.0 38 92
r 0.078528 1 0 ack 40 ------- 0 1.0 0.0 34 84
+ 0.078528 0 1 tcp 1540 ------- 0 0.0 1.0 54 93
0.079 20.7855
- 0.079584 0 1 tcp 1540 ------- 0 0.0 1.0 44 73
r 0.079656 0 1 tcp 1540 ------- 0 0.0 1.0 39 63
+ 0.079656 1 0 ack 40 ------- 0 1.0 0.0 39 94
- 0.079656 1 0 ack 40 ------- 0 1.0 0.0 39 94
r 0.07976 1 0 ack 40 ------- 0 1.0 0.0 35 86
+ 0.07976 0 1 tcp 1540 ------- 0 0.0 1.0 55 95
0.080 20.8336
- 0.080816 0 1 tcp 1540 ------- 0 0.0 1.0 45 75
r 0.080888 0 1 tcp 1540 ------- 0 0.0 1.0 40 65
+ 0.080888 1 0 ack 40 ------- 0 1.0 0.0 40 96
- 0.080888 1 0 ack 40 ------- 0 1.0 0.0 40 96
r 0.080992 1 0 ack 40 ------- 0 1.0 0.0 36 88
+ 0.080992 0 1 tcp 1540 ------- 0 0.0 1.0 56 97
0.081 20.8816
0.082 20.8816
- 0.082048 0 1 tcp 1540 ------- 0 0.0 1.0 46 77
r 0.08212 0 1 tcp 1540 ------- 0 0.0 1.0 41 67
+ 0.08212 1 0 ack 40 ------- 0 1.0 0.0 41 98
- 0.08212 1 0 ack 40 ------- 0 1.0 0.0 41 98
r 0.082224 1 0 ack 40 ------- 0 1.0 0.0 37 90
+ 0.082224 0 1 tcp 1540 ------- 0 0.0 1.0 57 99
0.083 20.9295
- 0.08328 0 1 tcp 1540 ------- 0 0.0 1.0 47 79
r 0.083352 0 1 tcp 1540 ------- 0 0.0 1.0 42 69
+ 0.083352 1 0 ack 40 ------- 0 1.0 0.0 42 100
- 0.083352 1 0 ack 40 ------- 0 1.0 0.0 42 100
r 0.083456 1 0 ack 40 ------- 0 1.0 0.0 38 92
+ 0.083456 0 1 tcp 1540 ------- 0 0.0 1.0 58 101
0.084 20.9773
- 0.084512 0 1 tcp 1540 ------- 0 0.0 1.0 48 81
r 0.084584 0 1 tcp 1540 ------- 0 0.0 1.0 43 71
+ 0.084584 1 0 ack 40 ------- 0 1.0 0.0 43 102
- 0.084584 1 0 ack 40 ------- 0 1.0 0.0 43 102
r 0.084688 1 0 ack 40 ------- 0 1.0 0.0 39 94
+ 0.084688 0 1 tcp 1540 ------- 0 0.0 1.0 59 103
0.085 21.025
- 0.085744 0 1 tcp 1540 ------- 0 0.0 1.0 49 83
r 0.085816 0 1 tcp 1540 ------- 0 0.0 1.0 44 73
+ 0.085816 1 0 ack 40 ------- 0 1.0 0.0 44 104
- 0.085816 1 0 ack 40 ------- 0 1.0 0.0 44 104
r 0.08592 1 0 ack 40 ------- 0 1.0 0.0 40 96
+ 0.08592 0 1 tcp 1540 ------- 0 0.0 1.0 60 105
0.086 21.0725
- 0.086976 0 1 tcp 1540 ------- 0 0.0 1.0 50 85
0.087 21.0725
r 0.087048 0 1 tcp 1540 ------- 0 0.0 1.0 45 75
+ 0.087048 1 0 ack 40 ------- 0 1.0 0.0 45 106
- 0.087048 1 0 ack 40 ------- 0 1.0 0.0 45 106
r 0.087152 1 0 ack 40 ------- 0 1.0 0.0 41 98
+ 0.087152 0 1 tcp 1540 ------- 0 0.0 1.0 61 107
0.088 21.12
- 0.088208 0 1 tcp 1540 ------- 0 0.0 1.0 51 87
r 0.08828 0 1 tcp 1540 ------- 0 0.0 1.0 46 77
+ 0.08828 1 0 ack 40 ------- 0 1.0 0.0 46 108
- 0.08828 1 0 ack 40 ------- 0 1.0 0.0 46 108
r 0.088384 1 0 ack 40 ------- 0 1.0 0.0 42 100
+ 0.088384 0 1 tcp 1540 ------- 0 0.0 1.0 62 109
0.089 21.1674
- 0.08944 0 1 tcp 1540 ------- 0 0.0 1.0 52 89
r 0.089512 0 1 tcp 1540 ------- 0 0.0 1.0 47 79
+ 0.089512 1 0 ack 40 ------- 0 1.0 0.0 47 110
- 0.089512 1 0 ack 40 ------- 0 1.0 0.0 47 110
r 0.089616 1 0 ack 40 ------- 0 1.0 0.0 43 102
+ 0.089616 0 1 tcp 1540 ------- 0 0.0 1.0 63 111
0.090 21.2146
- 0.090672 0 1 tcp 1540 ------- 0 0.0 1.0 53 91
r 0.090744 0 1 tcp 1540 ------- 0 0.0 1.0 48 81
+ 0.090744 1 0 ack 40 ------- 0 1.0 0.0 48 112
- 0.090744 1 0 ack 40 ------- 0 1.0 0.0 48 112
r 0.090848 1 0 ack 40 ------- 0 1.0 0.0 44 104
+ 0.090848 0 1 tcp 1540 ------- 0 0.0 1.0 64 113
0.091 21.2617
- 0.091904 0 1 tcp 1540 ------- 0 0.0 1.0 54 93
r 0.091976 0 1 tcp 1540 ------- 0 0.0 1.0 49 83
+ 0.091976 1 0 ack 40 ------- 0 1.0 0.0 49 114
- 0.091976 1 0 ack 40 ------- 0 1.0 0.0 49 114
0.092 21.2617
r 0.09208 1 0 ack 40 ------- 0 1.0 0.0 45 106
+ 0.09208 0 1 tcp 1540 ------- 0 0.0 1.0 65 115
0.093 21.3088
- 0.093136 0 1 tcp 1540 ------- 0 0.0 1.0 55 95
r 0.093208 0 1 tcp 1540 ------- 0 0.0 1.0 50 85
+ 0.093208 1 0 ack 40 ------- 0 1.0 0.0 50 116
- 0.093208 1 0 ack 40 ------- 0 1.0 0.0 50 116
r 0.093312 1 0 ack 40 ------- 0 1.0 0.0 46 108
+ 0.093312 0 1 tcp 1540 ------- 0 0.0 1.0 66 117
0.094 21.3557
- 0.094368 0 1 tcp 1540 ------- 0 0.0 1.0 56 97
r 0.09444 0 1 tcp 1540 ------- 0 0.0 1.0 51 87
+ 0.09444 1 0 ack 40 ------- 0 1.0 0.0 51 118
- 0.09444 1 0 ack 40 ------- 0 1.0 0.0 51 118
r 0.094544 1 0 ack 40 ------- 0 1.0 0.0 47 110
+ 0.094544 0 1 tcp 1540 ------- 0 0.0 1.0 67 119
0.095 21.4025
- 0.0956 0 1 tcp 1540 ------- 0 0.0 1.0 57 99
r 0.095672 0 1 tcp 1540 ------- 0 0.0 1.0 52 89
+ 0.095672 1 0 ack 40 ------- 0 1.0 0.0 52 120
- 0.095672 1 0 ack 40 ------- 0 1.0 0.0 52 120
r 0.095776 1 0 ack 40 ------- 0 1.0 0.0 48 112
+ 0.095776 0 1 tcp 1540 ------- 0 0.0 1.0 68 121
0.096 21.4492
- 0.096832 0 1 tcp 1540 ------- 0 0.0 1.0 58 101
r 0.096904 0 1 tcp 1540 ------- 0 0.0 1.0 53 91
+ 0.096904 1 0 ack 40 ------- 0 1.0 0.0 53 122
- 0.096904 1 0 ack 40 ------- 0 1.0 0.0 53 122
0.097 21.4492
r 0.097008 1 0 ack 40 ------- 0 1.0 0.0 49 114
+ 0.097008 0 1 tcp 1540 ------- 0 0.0 1.0 69 123
0.098 21.4959
- 0.098064 0 1 tcp 1540 ------- 0 0.0 1.0 59 103
r 0.098136 0 1 tcp 1540 ------- 0 0.0 1.0 54 93
+ 0.098136 1 0 ack 40 ------- 0 1.0 0.0 54 124
- 0.098136 1 0 ack 40 ------- 0 1.0 0.0 54 124
r 0.09824 1 0 ack 40 ------- 0 1.0 0.0 50 116
+ 0.09824 0 1 tcp 1540 ------- 0 0.0 1.0 70 125
0.099 21.5424
- 0.099296 0 1 tcp 1540 ------- 0 0.0 1.0 60 105
r 0.099368 0 1 tcp 1540 ------- 0 0.0 1.0 55 95
+ 0.099368 1 0 ack 40 ------- 0 1.0 0.0 55 126
- 0.099368 1 0 ack 40 ------- 0 1.0 0.0 55 126
r 0.099472 1 0 ack 40 ------- 0 1.0 0.0 51 118
+ 0.099472 0 1 tcp 1540 ------- 0 0.0 1.0 71 127
0.100 21.5888
- 0.100528 0 1 tcp 1540 ------- 0 0.0 1.0 61 107
r 0.1006 0 1 tcp 1540 ------- 0 0.0 1.0 56 97
+ 0.1006 1 0 ack 40 ------- 0 1.0 0.0 56 128
- 0.1006 1 0 ack 40 ------- 0 1.0 0.0 56 128
r 0.100704 1 0 ack 40 ------- 0 1.0 0.0 52 120
+ 0.100704 0 1 tcp 1540 ------- 0 0.0 1.0 72 129
0.101 21.6351
- 0.10176 0 1 tcp 1540 ------- 0 0.0 1.0 62 109
r 0.101832 0 1 tcp 1540 ------- 0 0.0 1.0 57 99
+ 0.101832 1 0 ack 40 ------- 0 1.0 0.0 57 130
- 0.101832 1 0 ack 40 ------- 0 1.0 0.0 57 130
r 0.101936 1 0 ack 40 ------- 0 1.0 0.0 53 122
+ 0.101936 0 1 tcp 1540 ------- 0 0.0 1.0 73 131
0.102 21.6813
- 0.102992 0 1 tcp 1540 ------- 0 0.0 1.0 63 111
0.103 21.6813
r 0.103064 0 1 tcp 1540 ------- 0 0.0 1.0 58 101
+ 0.103064 1 0 ack 40 ------- 0 1.0 0.0 58 132
- 0.103064 1 0 ack 40 ------- 0 1.0 0.0 58 132
r 0.103168 1 0 ack 40 ------- 0 1.0 0.0 54 124
+ 0.103168 0 1 tcp 1540 ------- 0 0.0 1.0 74 133
0.104 21.7275
- 0.104224 0 1 tcp 1540 ------- 0 0.0 1.0 64 113
r 0.104296 0 1 tcp 1540 ------- 0 0.0 1.0 59 103
+ 0.104296 1 0 ack 40 ------- 0 1.0 0.0 59 134
- 0.104296 1 0 ack 40 ------- 0 1.0 0.0 59 134
r 0.1044 1 0 ack 40 ------- 0 1.0 0.0 55 126
+ 0.1044 0 1 tcp 1540 ------- 0 0.0 1.0 75 135
0.105 21.7735
- 0.105456 0 1 tcp 1540 ------- 0 0.0 1.0 65 115
r 0.105528 0 1 tcp 1540 ------- 0 0.0 1.0 60 105
+ 0.105528 1 0 ack 40 ------- 0 1.0 0.0 60 136
- 0.105528 1 0 ack 40 ------- 0 1.0 0.0 60 136
r 0.105632 1 0 ack 40 ------- 0 1.0 0.0 56 128
+ 0.105632 0 1 tcp 1540 ------- 0 0.0 1.0 76 137
0.106 21.8194
- 0.106688 0 1 tcp 1540 ------- 0 0.0 1.0 66 117
r 0.10676 0 1 tcp 1540 ------- 0 0.0 1.0 61 107
+ 0.10676 1 0 ack 40 ------- 0 1.0 0.0 61 138
- 0.10676 1 0 ack 40 ------- 0 1.0 0.0 61 138
r 0.106864 1 0 ack 40 ------- 0 1.0 0.0 57 130
+ 0.106864 0 1 tcp 1540 ------- 0 0.0 1.0 77 139
0.107 21.8653
- 0.10792 0 1 tcp 1540 ------- 0 0.0 1.0 67 119
r 0.107992 0 1 tcp 1540 ------- 0 0.0 1.0 62 109
+ 0.107992 1 0 ack 40 ------- 0 1.0 0.0 62 140
- 0.107992 1 0 ack 40 ------- 0 1.0 0.0 62 140
0.108 21.8653
r 0.108096 1 0 ack 40 ------- 0 1.0 0.0 58 132
+ 0.108096 0 1 tcp 1540 ------- 0 0.0 1.0 78 141
0.109 21.911
- 0.109152 0 1 tcp 1540 ------- 0 0.0 1.0 68 121
r 0.109224 0 1 tcp 1540 ------- 0 0.0 1.0 63 111
+ 0.109224 1 0 ack 40 ------- 0 1.0 0.0 63 142
- 0.109224 1 0 ack 40 ------- 0 1.0 0.0 63 142
r 0.109328 1 0 ack 40 ------- 0 1.0 0.0 59 134
+ 0.109328 0 1 tcp 1540 ------- 0 0.0 1.0 79 143
0.110 21.9566
- 0.110384 0 1 tcp 1540 ------- 0 0.0 1.0 69 123
r 0.110456 0 1 tcp 1540 ------- 0 0.0 1.0 64 113
+ 0.110456 1 0 ack 40 ------- 0 1.0 0.0 64 144
- 0.110456 1 0 ack 40 ------- 0 1.0 0.0 64 144
r 0.11056 1 0 ack 40 ------- 0 1.0 0.0 60 136
+ 0.11056 0 1 tcp 1540 ------- 0 0.0 1.0 80 145
0.111 22.0022
- 0.111616 0 1 tcp 1540 ------- 0 0.0 1.0 70 125
r 0.111688 0 1 tcp 1540 ------- 0 0.0 1.0 65 115
+ 0.111688 1 0 ack 40 ------- 0 1.0 0.0 65 146
- 0.111688 1 0 ack 40 ------- 0 1.0 0.0 65 146
r 0.111792 1 0 ack 40 ------- 0 1.0 0.0 61 138
+ 0.111792 0 1 tcp 1540 ------- 0 0.0 1.0 81 147
0.112 22.0476
- 0.112848 0 1 tcp 1540 ------- 0 0.0 1.0 71 127
r 0.11292 0 1 tcp 1540 ------- 0 0.0 1.0 66 117
+ 0.11292 1 0 ack 40 ------- 0 1.0 0.0 66 148
- 0.11292 1 0 ack 40 ------- 0 1.0 0.0 66 148
0.113 22.0476
r 0.113024 1 0 ack 40 ------- 0 1.0 0.0 62 140
+ 0.113024 0 1 tcp 1540 ------- 0 0.0 1.0 82 149
0.114 22.093
- 0.11408 0 1 tcp 1540 ------- 0 0.0 1.0 72 129
r 0.114152 0 1 tcp 1540 ------- 0 0.0 1.0 67 119
+ 0.114152 1 0 ack 40 ------- 0 1.0 0.0 67 150
- 0.114152 1 0 ack 40 ------- 0 1.0 0.0 67 150
r 0.114256 1 0 ack 40 ------- 0 1.0 0.0 63 142
+ 0.114256 0 1 tcp 1540 ------- 0 0.0 1.0 83 151
0.115 22.1382
- 0.115312 0 1 tcp 1540 ------- 0 0.0 1.0 73 131
r 0.115384 0 1 tcp 1540 ------- 0 0.0 1.0 68 121
+ 0.115384 1 0 ack 40 ------- 0 1.0 0.0 68 152
- 0.115384 1 0 ack 40 ------- 0 1.0 0.0 68 152
r 0.115488 1 0 ack 40 ------- 0 1.0 0.0 64 144
+ 0.115488 0 1 tcp 1540 ------- 0 0.0 1.0 84 153
0.116 22.1834
- 0.116544 0 1 tcp 1540 ------- 0 0.0 1.0 74 133
r 0.116616 0 1 tcp 1540 ------- 0 0.0 1.0 69 123
+ 0.116616 1 0 ack 40 ------- 0 1.0 0.0 69 154
- 0.116616 1 0 ack 40 ------- 0 1.0 0.0 69 154
r 0.11672 1 0 ack 40 ------- 0 1.0 0.0 65 146
+ 0.11672 0 1 tcp 1540 ------- 0 0.0 1.0 85 155
0.117 22.2285
- 0.117776 0 1 tcp 1540 ------- 0 0.0 1.0 75 135
r 0.117848 0 1 tcp 1540 ------- 0 0.0 1.0 70 125
+ 0.117848 1 0 ack 40 ------- 0 1.0 0.0 70 156
- 0.117848 1 0 ack 40 ------- 0 1.0 0.0 70 156
r 0.117952 1 0 ack 40 ------- 0 1.0 0.0 66 148
+ 0.117952 0 1 tcp 1540 ------- 0 0.0 1.0 86 157
0.118 22.2735
0.119 22.2735
- 0.119008 0 1 tcp 1540 ------- 0 0.0 1.0 76 137
r 0.11908 0 1 tcp 1540 ------- 0 0.0 1.0 71 127
+ 0.11908 1 0 ack 40 ------- 0 1.0 0.0 71 158
- 0.11908 1 0 ack 40 ------- 0 1.0 0.0 71 158
r 0.119184 1 0 ack 40 ------- 0 1.0 0.0 67 150
+ 0.119184 0 1 tcp 1540 ------- 0 0.0 1.0 87 159
0.120 22.3184
- 0.12024 0 1 tcp 1540 ------- 0 0.0 1.0 77 139
r 0.120312 0 1 tcp 1540 ------- 0 0.0 1.0 72 129
+ 0.120312 1 0 ack 40 ------- 0 1.0 0.0 72 160
- 0.120312 1 0 ack 40 ------- 0 1.0 0.0 72 160
r 0.120416 1 0 ack 40 ------- 0 1.0 0.0 68 152
+ 0.120416 0 1 tcp 1540 ------- 0 0.0 1.0 88 161
0.121 22.3632
- 0.121472 0 1 tcp 1540 ------- 0 0.0 1.0 78 141
r 0.121544 0 1 tcp 1540 ------- 0 0.0 1.0 73 131
+ 0.121544 1 0 ack 40 ------- 0 1.0 0.0 73 162
- 0.121544 1 0 ack 40 ------- 0 1.0 0.0 73 162
r 0.121648 1 0 ack 40 ------- 0 1.0 0.0 69 154
+ 0.121648 0 1 tcp 1540 ------- 0 0.0 1.0 89 163
0.122 22.4079
- 0.122704 0 1 tcp 1540 ------- 0 0.0 1.0 79 143
r 0.122776 0 1 tcp 1540 ------- 0 0.0 1.0 74 133
+ 0.122776 1 0 ack 40 ------- 0 1.0 0.0 74 164
- 0.122776 1 0 ack 40 ------- 0 1.0 0.0 74 164
r 0.12288 1 0 ack 40 ------- 0 1.0 0.0 70 156
+ 0.12288 0 1 tcp 1540 ------- 0 0.0 1.0 90 165
0.123 22.4525
- 0.123936 0 1 tcp 1540 ------- 0 0.0 1.0 80 145
0.124 22.4525
r 0.124008 0 1 tcp 1540 ------- 0 0.0 1.0 75 135
+ 0.124008 1 0 ack 40 ------- 0 1.0 0.0 75 166
- 0.124008 1 0 ack 40 ------- 0 1.0 0.0 75 166
r 0.124112 1 0 ack 40 ------- 0 1.0 0.0 71 158
+ 0.124112 0 1 tcp 1540 ------- 0 0.0 1.0 91 167
0.125 22.4971
- 0.125168 0 1 tcp 1540 ------- 0 0.0 1.0 81 147
r 0.12524 0 1 tcp 1540 ------- 0 0.0 1.0 76 137
+ 0.12524 1 0 ack 40 ------- 0 1.0 0.0 76 168
- 0.12524 1 0 ack 40 ------- 0 1.0 0.0 76 168
r 0.125344 1 0 ack 40 ------- 0 1.0 0.0 72 160
+ 0.125344 0 1 tcp 1540 ------- 0 0.0 1.0 92 169
0.126 22.5415
- 0.1264 0 1 tcp 1540 ------- 0 0.0 1.0 82 149
r 0.126472 0 1 tcp 1540 ------- 0 0.0 1.0 77 139
+ 0.126472 1 0 ack 40 ------- 0 1.0 0.0 77 170
- 0.126472 1 0 ack 40 ------- 0 1.0 0.0 77 170
r 0.126576 1 0 ack 40 ------- 0 1.0 0.0 73 162
+ 0.126576 0 1 tcp 1540 ------- 0 0.0 1.0 93 171
0.127 22.5859
- 0.127632 0 1 tcp 1540 ------- 0 0.0 1.0 83 151
r 0.127704 0 1 tcp 1540 ------- 0 0.0 1.0 78 141
+ 0.127704 1 0 ack 40 ------- 0 1.0 0.0 78 172
- 0.127704 1 0 ack 40 ------- 0 1.0 0.0 78 172
r 0.127808 1 0 ack 40 ------- 0 1.0 0.0 74 164
+ 0.127808 0 1 tcp 1540 ------- 0 0.0 1.0 94 173
0.128 22.6301
- 0.128864 0 1 tcp 1540 ------- 0 0.0 1.0 84 153
r 0.128936 0 1 tcp 1540 ------- 0 0.0 1.0 79 143
+ 0.128936 1 0 ack 40 ------- 0 1.0 0.0 79 174
- 0.128936 1 0 ack 40 ------- 0 1.0 0.0 79 174
0.129 22.6301
r 0.12904 1 0 ack 40 ------- 0 1.0 0.0 75 166
+ 0.12904 0 1 tcp 1540 ------- 0 0.0 1.0 95 175
0.130 22.6743
- 0.130096 0 1 tcp 1540 ------- 0 0.0 1.0 85 155
r 0.130168 0 1 tcp 1540 ------- 0 0.0 1.0 80 145
+ 0.130168 1 0 ack 40 ------- 0 1.0 0.0 80 176
- 0.130168 1 0 ack 40 ------- 0 1.0 0.0 80 176
r 0.130272 1 0 ack 40 ------- 0 1.0 0.0 76 168
+ 0.130272 0 1 tcp 1540 ------- 0 0.0 1.0 96 177
0.131 22.7184
- 0.131328 0 1 tcp 1540 ------- 0 0.0 1.0 86 157
r 0.1314 0 1 tcp 1540 ------- 0 0.0 1.0 81 147
+ 0.1314 1 0 ack 40 ------- 0 1.0 0.0 81 178
- 0.1314 1 0 ack 40 ------- 0 1.0 0.0 81 178
r 0.131504 1 0 ack 40 ------- 0 1.0 0.0 77 170
+ 0.131504 0 1 tcp 1540 ------- 0 0.0 1.0 97 179
0.132 22.7625
- 0.13256 0 1 tcp 1540 ------- 0 0.0 1.0 87 159
r 0.132632 0 1 tcp 1540 ------- 0 0.0 1.0 82 149
+ 0.132632 1 0 ack 40 ------- 0 1.0 0.0 82 180
- 0.132632 1 0 ack 40 ------- 0 1.0 0.0 82 180
r 0.132736 1 0 ack 40 ------- 0 1.0 0.0 78 172
+ 0.132736 0 1 tcp 1540 ------- 0 0.0 1.0 98 181
0.133 22.8064
- 0.133792 0 1 tcp 1540 ------- 0 0.0 1.0 88 161
r 0.133864 0 1 tcp 1540 ------- 0 0.0 1.0 83 151
+ 0.133864 1 0 ack 40 ------- 0 1.0 0.0 83 182
- 0.133864 1 0 ack 40 ------- 0 1.0 0.0 83 182
r 0.133968 1 0 ack 40 ------- 0 1.0 0.0 79 174
+ 0.133968 0 1 tcp 1540 ------- 0 0.0 1.0 99 183
0.134 22.8502
0.135 22.8502
- 0.135024 0 1 tcp 1540 ------- 0 0.0 1.0 89 163
r 0.135096 0 1 tcp 1540 ------- 0 0.0 1.0 84 153
+ 0.135096 1 0 ack 40 ------- 0 1.0 0.0 84 184
- 0.135096 1 0 ack 40 ------- 0 1.0 0.0 84 184
r 0.1352 1 0 ack 40 ------- 0 1.0 0.0 80 176
+ 0.1352 0 1 tcp 1540 ------- 0 0.0 1.0 100 185
0.136 22.894
- 0.136256 0 1 tcp 1540 ------- 0 0.0 1.0 90 165
r 0.136328 0 1 tcp 1540 ------- 0 0.0 1.0 85 155
+ 0.136328 1 0 ack 40 ------- 0 1.0 0.0 85 186
- 0.136328 1 0 ack 40 ------- 0 1.0 0.0 85 186
r 0.136432 1 0 ack 40 ------- 0 1.0 0.0 81 178
+ 0.136432 0 1 tcp 1540 ------- 0 0.0 1.0 101 187
0.137 22.9377
- 0.137488 0 1 tcp 1540 ------- 0 0.0 1.0 91 167
r 0.13756 0 1 tcp 1540 ------- 0 0.0 1.0 86 157
+ 0.13756 1 0 ack 40 ------- 0 1.0 0.0 86 188
- 0.13756 1 0 ack 40 ------- 0 1.0 0.0 86 188
r 0.137664 1 0 ack 40 ------- 0 1.0 0.0 82 180
+ 0.137664 0 1 tcp 1540 ------- 0 0.0 1.0 102 189
0.138 22.9813
- 0.13872 0 1 tcp 1540 ------- 0 0.0 1.0 92 169
r 0.138792 0 1 tcp 1540 ------- 0 0.0 1.0 87 159
+ 0.138792 1 0 ack 40 ------- 0 1.0 0.0 87 190
- 0.138792 1 0 ack 40 ------- 0 1.0 0.0 87 190
r 0.138896 1 0 ack 40 ------- 0 1.0 0.0 83 182
+ 0.138896 0 1 tcp 1540 ------- 0 0.0 1.0 103 191
0.139 23.0248
- 0.139952 0 1 tcp 1540 ------- 0 0.0 1.0 93 171
0.140 23.0248
r 0.140024 0 1 tcp 1540 ------- 0 0.0 1.0 88 161
+ 0.140024 1 0 ack 40 ------- 0 1.0 0.0 88 192
- 0.140024 1 0 ack 40 ------- 0 1.0 0.0 88 192
r 0.140128 1 0 ack 40 ------- 0 1.0 0.0 84 184
+ 0.140128 0 1 tcp 1540 ------- 0 0.0 1.0 104 193
0.141 23.0682
- 0.141184 0 1 tcp 1540 ------- 0 0.0 1.0 94 173
r 0.141256 0 1 tcp 1540 ------- 0 0.0 1.0 89 163
+ 0.141256 1 0 ack 40 ------- 0 1.0 0.0 89 194
- 0.141256 1 0 ack 40 ------- 0 1.0 0.0 89 194
r 0.14136 1 0 ack 40 ------- 0 1.0 0.0 85 186
+ 0.14136 0 1 tcp 1540 ------- 0 0.0 1.0 105 195
0.142 23.1116
- 0.142416 0 1 tcp 1540 ------- 0 0.0 1.0 95 175
r 0.142488 0 1 tcp 1540 ------- 0 0.0 1.0 90 165
+ 0.142488 1 0 ack 40 ------- 0 1.0 0.0 90 196
- 0.142488 1 0 ack 40 ------- 0 1.0 0.0 90 196
r 0.142592 1 0 ack 40 ------- 0 1.0 0.0 86 188
+ 0.142592 0 1 tcp 1540 ------- 0 0.0 1.0 106 197
0.143 23.1548
- 0.143648 0 1 tcp 1540 ------- 0 0.0 1.0 96 177
r 0.14372 0 1 tcp 1540 ------- 0 0.0 1.0 91 167
+ 0.14372 1 0 ack 40 ------- 0 1.0 0.0 91 198
- 0.14372 1 0 ack 40 ------- 0 1.0 0.0 91 198
r 0.143824 1 0 ack 40 ------- 0 1.0 0.0 87 190
+ 0.143824 0 1 tcp 1540 ------- 0 0.0 1.0 107 199
0.144 23.198
- 0.14488 0 1 tcp 1540 ------- 0 0.0 1.0 97 179
r 0.144952 0 1 tcp 1540 ------- 0 0.0 1.0 92 169
+ 0.144952 1 0 ack 40 ------- 0 1.0 0.0 92 200
- 0.144952 1 0 ack 40 ------- 0 1.0 0.0 92 200
0.145 23.198
r 0.145056 1 0 ack 40 ------- 0 1.0 0.0 88 192
+ 0.145056 0 1 tcp 1540 ------- 0 0.0 1.0 108 201
0.146 23.2411
- 0.146112 0 1 tcp 1540 ------- 0 0.0 1.0 98 181
r 0.146184 0 1 tcp 1540 ------- 0 0.0 1.0 93 171
+ 0.146184 1 0 ack 40 ------- 0 1.0 0.0 93 202
- 0.146184 1 0 ack 40 ------- 0 1.0 0.0 93 202
r 0.146288 1 0 ack 40 ------- 0 1.0 0.0 89 194
+ 0.146288 0 1 tcp 1540 ------- 0 0.0 1.0 109 203
0.147 23.2842
- 0.147344 0 1 tcp 1540 ------- 0 0.0 1.0 99 183
r 0.147416 0 1 tcp 1540 ------- 0 0.0 1.0 94 173
+ 0.147416 1 0 ack 40 ------- 0 1.0 0.0 94 204
- 0.147416 1 0 ack 40 ------- 0 1.0 0.0 94 204
r 0.14752 1 0 ack 40 ------- 0 1.0 0.0 90 196
+ 0.14752 0 1 tcp 1540 ------- 0 0.0 1.0 110 205
0.148 23.3271
- 0.148576 0 1 tcp 1540 ------- 0 0.0 1.0 100 185
r 0.148648 0 1 tcp 1540 ------- 0 0.0 1.0 95 175
+ 0.148648 1 0 ack 40 ------- 0 1.0 0.0 95 206
- 0.148648 1 0 ack 40 ------- 0 1.0 0.0 95 206
r 0.148752 1 0 ack 40 ------- 0 1.0 0.0 91 198
+ 0.148752 0 1 tcp 1540 ------- 0 0.0 1.0 111 207
0.149 23.37
- 0.149808 0 1 tcp 1540 ------- 0 0.0 1.0 101 187
r 0.14988 0 1 tcp 1540 ------- 0 0.0 1.0 96 177
+ 0.14988 1 0 ack 40 ------- 0 1.0 0.0 96 208
- 0.14988 1 0 ack 40 ------- 0 1.0 0.0 96 208
r 0.149984 1 0 ack 40 ------- 0 1.0 0.0 92 200
+ 0.149984 0 1 tcp 1540 ------- 0 0.0 1.0 112 209
0.150 23.4128