+ 0 0 1 tcp 40 ------- 0 0.0 1.0 0 0
- 0 0 1 tcp 40 ------- 0 0.0 1.0 0 0
0.000 1
0.001 1
0.002 1
0.003 1
0.004 1
0.005 1
0.006 1
0.007 1
0.008 1
0.009 1
0.010 1
0.011 1
0.012 1
0.013 1
0.014 1
0.015 1
0.016 1
0.017 1
0.018 1
0.019 1
0.020 1
0.021 1
0.022 1
0.023 1
0.024 1
0.025 1
0.026 1
0.027 1
0.028 1
0.029 1
0.030 1
0.031 1
0.032 1
0.033 1
0.034 1
0.035 1
0.036 1
0.037 1
0.038 1
0.039 1
0.040 1
r 0.040016 0 1 tcp 40 ------- 0 0.0 1.0 0 0
+ 0.040016 1 0 ack 40 ------- 0 1.0 0.0 0 1
- 0.040016 1 0 ack 40 ------- 0 1.0 0.0 0 1
0.041 1
0.042 1
0.043 1
0.044 1
0.045 1
0.046 1
0.047 1
0.048 1
0.049 1
0.050 1
0.051 1
0.052 1
0.053 1
0.054 1
0.055 1
0.056 1
0.057 1
0.058 1
0.059 1
0.060 1
0.061 1
0.062 1
0.063 1
0.064 1
0.065 1
0.066 1
0.067 1
0.068 1
0.069 1
0.070 1
0.071 1
0.072 1
0.073 1
0.074 1
0.075 1
0.076 1
0.077 1
0.078 1
0.079 1
0.080 1
r 0.080032 1 0 ack 40 ------- 0 1.0 0.0 0 1
+ 0.080032 0 1 tcp 1540 ------- 0 0.0 1.0 1 2
- 0.080032 0 1 tcp 1540 ------- 0 0.0 1.0 1 2
+ 0.080032 0 1 tcp 1540 ------- 0 0.0 1.0 2 3
- 0.080648 0 1 tcp 1540 ------- 0 0.0 1.0 2 3
0.081 2
0.082 2
0.083 2
0.084 2
0.085 2
0.086 2
0.087 2
0.088 2
0.089 2
0.090 2
0.091 2
0.092 2
0.093 2
0.094 2
0.095 2
0.096 2
0.097 2
0.098 2
0.099 2
0.100 2
0.101 2
0.102 2
0.103 2
0.104 2
0.105 2
0.106 2
0.107 2
0.108 2
0.109 2
0.110 2
0.111 2
0.112 2
0.113 2
0.114 2
0.115 2
0.116 2
0.117 2
0.118 2
0.119 2
0.120 2
r 0.120648 0 1 tcp 1540 ------- 0 0.0 1.0 1 2
+ 0.120648 1 0 ack 40 ------- 0 1.0 0.0 1 4
- 0.120648 1 0 ack 40 ------- 0 1.0 0.0 1 4
0.121 2
r 0.121264 0 1 tcp 1540 ------- 0 0.0 1.0 2 3
+ 0.121264 1 0 ack 40 ------- 0 1.0 0.0 2 5
- 0.121264 1 0 ack 40 ------- 0 1.0 0.0 2 5
0.122 2
0.123 2
0.124 2
0.125 2
0.126 2
0.127 2
0.128 2
0.129 2
0.130 2
0.131 2
0.132 2
0.133 2
0.134 2
0.135 2
0.136 2
0.137 2
0.138 2
0.139 2
0.140 2
0.141 2
0.142 2
0.143 2
0.144 2
0.145 2
0.146 2
0.147 2
0.148 2
0.149 2
0.150 2
0.151 2
0.152 2
0.153 2
0.154 2
0.155 2
0.156 2
0.157 2
0.158 2
0.159 2
0.160 2
r 0.160664 1 0 ack 40 ------- 0 1.0 0.0 1 4
+ 0.160664 0 1 tcp 1540 ------- 0 0.0 1.0 3 6
- 0.160664 0 1 tcp 1540 ------- 0 0.0 1.0 3 6
+ 0.160664 0 1 tcp 1540 ------- 0 0.0 1.0 4 7
0.161 3
r 0.16128 1 0 ack 40 ------- 0 1.0 0.0 2 5
+ 0.16128 0 1 tcp 1540 ------- 0 0.0 1.0 5 8
+ 0.16128 0 1 tcp 1540 ------- 0 0.0 1.0 6 9
- 0.16128 0 1 tcp 1540 ------- 0 0.0 1.0 4 7
- 0.161896 0 1 tcp 1540 ------- 0 0.0 1.0 5 8
0.162 4
- 0.162512 0 1 tcp 1540 ------- 0 0.0 1.0 6 9
0.163 4
0.164 4
0.165 4
0.166 4
0.167 4
0.168 4
0.169 4
0.170 4
0.171 4
0.172 4
0.173 4
0.174 4
0.175 4
0.176 4
0.177 4
0.178 4
0.179 4
0.180 4
0.181 4
0.182 4
0.183 4
0.184 4
0.185 4
0.186 4
0.187 4
0.188 4
0.189 4
0.190 4
0.191 4
0.192 4
0.193 4
0.194 4
0.195 4
0.196 4
0.197 4
0.198 4
0.199 4
0.200 4
0.201 4
r 0.20128 0 1 tcp 1540 ------- 0 0.0 1.0 3 6
+ 0.20128 1 0 ack 40 ------- 0 1.0 0.0 3 10
- 0.20128 1 0 ack 40 ------- 0 1.0 0.0 3 10
r 0.201896 0 1 tcp 1540 ------- 0 0.0 1.0 4 7
+ 0.201896 1 0 ack 40 ------- 0 1.0 0.0 4 11
- 0.201896 1 0 ack 40 ------- 0 1.0 0.0 4 11
0.202 4
r 0.202512 0 1 tcp 1540 ------- 0 0.0 1.0 5 8
+ 0.202512 1 0 ack 40 ------- 0 1.0 0.0 5 12
- 0.202512 1 0 ack 40 ------- 0 1.0 0.0 5 12
0.203 4
r 0.203128 0 1 tcp 1540 ------- 0 0.0 1.0 6 9
+ 0.203128 1 0 ack 40 ------- 0 1.0 0.0 6 13
- 0.203128 1 0 ack 40 ------- 0 1.0 0.0 6 13
0.204 4
0.205 4
0.206 4
0.207 4
0.208 4
0.209 4
0.210 4
0.211 4
0.212 4
0.213 4
0.214 4
0.215 4
0.216 4
0.217 4
0.218 4
0.219 4
0.220 4
0.221 4
0.222 4
0.223 4
0.224 4
0.225 4
0.226 4
0.227 4
0.228 4
0.229 4
0.230 4
0.231 4
0.232 4
0.233 4
0.234 4
0.235 4
0.236 4
0.237 4
0.238 4
0.239 4
0.240 4
0.241 4
r 0.241296 1 0 ack 40 ------- 0 1.0 0.0 3 10
+ 0.241296 0 1 tcp 1540 ------- 0 0.0 1.0 7 14
- 0.241296 0 1 tcp 1540 ------- 0 0.0 1.0 7 14
+ 0.241296 0 1 tcp 1540 ------- 0 0.0 1.0 8 15
r 0.241912 1 0 ack 40 ------- 0 1.0 0.0 4 11
+ 0.241912 0 1 tcp 1540 ------- 0 0.0 1.0 9 16
+ 0.241912 0 1 tcp 1540 ------- 0 0.0 1.0 10 17
- 0.241912 0 1 tcp 1540 ------- 0 0.0 1.0 8 15
0.242 6
r 0.242528 1 0 ack 40 ------- 0 1.0 0.0 5 12
+ 0.242528 0 1 tcp 1540 ------- 0 0.0 1.0 11 18
+ 0.242528 0 1 tcp 1540 ------- 0 0.0 1.0 12 19
- 0.242528 0 1 tcp 1540 ------- 0 0.0 1.0 9 16
0.243 7
r 0.243144 1 0 ack 40 ------- 0 1.0 0.0 6 13
+ 0.243144 0 1 tcp 1540 ------- 0 0.0 1.0 13 20
+ 0.243144 0 1 tcp 1540 ------- 0 0.0 1.0 14 21
- 0.243144 0 1 tcp 1540 ------- 0 0.0 1.0 10 17
- 0.24376 0 1 tcp 1540 ------- 0 0.0 1.0 11 18
0.244 8
- 0.244376 0 1 tcp 1540 ------- 0 0.0 1.0 12 19
- 0.244992 0 1 tcp 1540 ------- 0 0.0 1.0 13 20
0.245 8
- 0.245608 0 1 tcp 1540 ------- 0 0.0 1.0 14 21
0.246 8
0.247 8
0.248 8
0.249 8
0.250 8
0.251 8
0.252 8
0.253 8
0.254 8
0.255 8
0.256 8
0.257 8
0.258 8
0.259 8
0.260 8
0.261 8
0.262 8
0.263 8
0.264 8
0.265 8
0.266 8
0.267 8
0.268 8
0.269 8
0.270 8
0.271 8
0.272 8
0.273 8
0.274 8
0.275 8
0.276 8
0.277 8
0.278 8
0.279 8
0.280 8
0.281 8
r 0.281912 0 1 tcp 1540 ------- 0 0.0 1.0 7 14
+ 0.281912 1 0 ack 40 ------- 0 1.0 0.0 7 22
- 0.281912 1 0 ack 40 ------- 0 1.0 0.0 7 22
0.282 8
r 0.282528 0 1 tcp 1540 ------- 0 0.0 1.0 8 15
+ 0.282528 1 0 ack 40 ------- 0 1.0 0.0 8 23
- 0.282528 1 0 ack 40 ------- 0 1.0 0.0 8 23
0.283 8
r 0.283144 0 1 tcp 1540 ------- 0 0.0 1.0 9 16
+ 0.283144 1 0 ack 40 ------- 0 1.0 0.0 9 24
- 0.283144 1 0 ack 40 ------- 0 1.0 0.0 9 24
r 0.28376 0 1 tcp 1540 ------- 0 0.0 1.0 10 17
+ 0.28376 1 0 ack 40 ------- 0 1.0 0.0 10 25
- 0.28376 1 0 ack 40 ------- 0 1.0 0.0 10 25
0.284 8
r 0.284376 0 1 tcp 1540 ------- 0 0.0 1.0 11 18
+ 0.284376 1 0 ack 40 ------- 0 1.0 0.0 11 26
- 0.284376 1 0 ack 40 ------- 0 1.0 0.0 11 26
r 0.284992 0 1 tcp 1540 ------- 0 0.0 1.0 12 19
+ 0.284992 1 0 ack 40 ------- 0 1.0 0.0 12 27
- 0.284992 1 0 ack 40 ------- 0 1.0 0.0 12 27
0.285 8
r 0.285608 0 1 tcp 1540 ------- 0 0.0 1.0 13 20
+ 0.285608 1 0 ack 40 ------- 0 1.0 0.0 13 28
- 0.285608 1 0 ack 40 ------- 0 1.0 0.0 13 28
0.286 8
r 0.286224 0 1 tcp 1540 ------- 0 0.0 1.0 14 21
+ 0.286224 1 0 ack 40 ------- 0 1.0 0.0 14 29
- 0.286224 1 0 ack 40 ------- 0 1.0 0.0 14 29
0.287 8
0.288 8
0.289 8
0.290 8
0.291 8
0.292 8
0.293 8
0.294 8
0.295 8
0.296 8
0.297 8
0.298 8
0.299 8
0.300 8
0.301 8
0.302 8
0.303 8
0.304 8
0.305 8
0.306 8
0.307 8
0.308 8
0.309 8
0.310 8
0.311 8
0.312 8
0.313 8
0.314 8
0.315 8
0.316 8
0.317 8
0.318 8
0.319 8
0.320 8
0.321 8
r 0.321928 1 0 ack 40 ------- 0 1.0 0.0 7 22
+ 0.321928 0 1 tcp 1540 ------- 0 0.0 1.0 15 30
- 0.321928 0 1 tcp 1540 ------- 0 0.0 1.0 15 30
+ 0.321928 0 1 tcp 1540 ------- 0 0.0 1.0 16 31
0.322 9
r 0.322544 1 0 ack 40 ------- 0 1.0 0.0 8 23
+ 0.322544 0 1 tcp 1540 ------- 0 0.0 1.0 17 32
+ 0.322544 0 1 tcp 1540 ------- 0 0.0 1.0 18 33
- 0.322544 0 1 tcp 1540 ------- 0 0.0 1.0 16 31
0.323 10
r 0.32316 1 0 ack 40 ------- 0 1.0 0.0 9 24
+ 0.32316 0 1 tcp 1540 ------- 0 0.0 1.0 19 34
+ 0.32316 0 1 tcp 1540 ------- 0 0.0 1.0 20 35
- 0.32316 0 1 tcp 1540 ------- 0 0.0 1.0 17 32
r 0.323776 1 0 ack 40 ------- 0 1.0 0.0 10 25
+ 0.323776 0 1 tcp 1540 ------- 0 0.0 1.0 21 36
+ 0.323776 0 1 tcp 1540 ------- 0 0.0 1.0 22 37
- 0.323776 0 1 tcp 1540 ------- 0 0.0 1.0 18 33
0.324 12
r 0.324392 1 0 ack 40 ------- 0 1.0 0.0 11 26
+ 0.324392 0 1 tcp 1540 ------- 0 0.0 1.0 23 38
+ 0.324392 0 1 tcp 1540 ------- 0 0.0 1.0 24 39
- 0.324392 0 1 tcp 1540 ------- 0 0.0 1.0 19 34
0.325 13
r 0.325008 1 0 ack 40 ------- 0 1.0 0.0 12 27
+ 0.325008 0 1 tcp 1540 ------- 0 0.0 1.0 25 40
+ 0.325008 0 1 tcp 1540 ------- 0 0.0 1.0 26 41
- 0.325008 0 1 tcp 1540 ------- 0 0.0 1.0 20 35
r 0.325624 1 0 ack 40 ------- 0 1.0 0.0 13 28
+ 0.325624 0 1 tcp 1540 ------- 0 0.0 1.0 27 42
+ 0.325624 0 1 tcp 1540 ------- 0 0.0 1.0 28 43
- 0.325624 0 1 tcp 1540 ------- 0 0.0 1.0 21 36
0.326 15
r 0.32624 1 0 ack 40 ------- 0 1.0 0.0 14 29
+ 0.32624 0 1 tcp 1540 ------- 0 0.0 1.0 29 44
+ 0.32624 0 1 tcp 1540 ------- 0 0.0 1.0 30 45
- 0.32624 0 1 tcp 1540 ------- 0 0.0 1.0 22 37
- 0.326856 0 1 tcp 1540 ------- 0 0.0 1.0 23 38
0.327 16
- 0.327472 0 1 tcp 1540 ------- 0 0.0 1.0 24 39
0.328 16
- 0.328088 0 1 tcp 1540 ------- 0 0.0 1.0 25 40
- 0.328704 0 1 tcp 1540 ------- 0 0.0 1.0 26 41
0.329 16
- 0.32932 0 1 tcp 1540 ------- 0 0.0 1.0 27 42
- 0.329936 0 1 tcp 1540 ------- 0 0.0 1.0 28 43
0.330 16
- 0.330552 0 1 tcp 1540 ------- 0 0.0 1.0 29 44
0.331 16
- 0.331168 0 1 tcp 1540 ------- 0 0.0 1.0 30 45
0.332 16
0.333 16
0.334 16
0.335 16
0.336 16
0.337 16
0.338 16
0.339 16
0.340 16
0.341 16
0.342 16
0.343 16
0.344 16
0.345 16
0.346 16
0.347 16
0.348 16
0.349 16
0.350 16
0.351 16
0.352 16
0.353 16
0.354 16
0.355 16
0.356 16
0.357 16
0.358 16
0.359 16
0.360 16
0.361 16
0.362 16
r 0.362544 0 1 tcp 1540 ------- 0 0.0 1.0 15 30
+ 0.362544 1 0 ack 40 ------- 0 1.0 0.0 15 46
- 0.362544 1 0 ack 40 ------- 0 1.0 0.0 15 46
0.363 16
r 0.36316 0 1 tcp 1540 ------- 0 0.0 1.0 16 31
+ 0.36316 1 0 ack 40 ------- 0 1.0 0.0 16 47
- 0.36316 1 0 ack 40 ------- 0 1.0 0.0 16 47
r 0.363776 0 1 tcp 1540 ------- 0 0.0 1.0 17 32
+ 0.363776 1 0 ack 40 ------- 0 1.0 0.0 17 48
- 0.363776 1 0 ack 40 ------- 0 1.0 0.0 17 48
0.364 16
r 0.364392 0 1 tcp 1540 ------- 0 0.0 1.0 18 33
+ 0.364392 1 0 ack 40 ------- 0 1.0 0.0 18 49
- 0.364392 1 0 ack 40 ------- 0 1.0 0.0 18 49
0.365 16
r 0.365008 0 1 tcp 1540 ------- 0 0.0 1.0 19 34
+ 0.365008 1 0 ack 40 ------- 0 1.0 0.0 19 50
- 0.365008 1 0 ack 40 ------- 0 1.0 0.0 19 50
r 0.365624 0 1 tcp 1540 ------- 0 0.0 1.0 20 35
+ 0.365624 1 0 ack 40 ------- 0 1.0 0.0 20 51
- 0.365624 1 0 ack 40 ------- 0 1.0 0.0 20 51
0.366 16
r 0.36624 0 1 tcp 1540 ------- 0 0.0 1.0 21 36
+ 0.36624 1 0 ack 40 ------- 0 1.0 0.0 21 52
- 0.36624 1 0 ack 40 ------- 0 1.0 0.0 21 52
r 0.366856 0 1 tcp 1540 ------- 0 0.0 1.0 22 37
+ 0.366856 1 0 ack 40 ------- 0 1.0 0.0 22 53
- 0.366856 1 0 ack 40 ------- 0 1.0 0.0 22 53
0.367 16
r 0.367472 0 1 tcp 1540 ------- 0 0.0 1.0 23 38
+ 0.367472 1 0 ack 40 ------- 0 1.0 0.0 23 54
- 0.367472 1 0 ack 40 ------- 0 1.0 0.0 23 54
0.368 16
r 0.368088 0 1 tcp 1540 ------- 0 0.0 1.0 24 39
+ 0.368088 1 0 ack 40 ------- 0 1.0 0.0 24 55
- 0.368088 1 0 ack 40 ------- 0 1.0 0.0 24 55
r 0.368704 0 1 tcp 1540 ------- 0 0.0 1.0 25 40
+ 0.368704 1 0 ack 40 ------- 0 1.0 0.0 25 56
- 0.368704 1 0 ack 40 ------- 0 1.0 0.0 25 56
0.369 16
r 0.36932 0 1 tcp 1540 ------- 0 0.0 1.0 26 41
+ 0.36932 1 0 ack 40 ------- 0 1.0 0.0 26 57
- 0.36932 1 0 ack 40 ------- 0 1.0 0.0 26 57
r 0.369936 0 1 tcp 1540 ------- 0 0.0 1.0 27 42
+ 0.369936 1 0 ack 40 ------- 0 1.0 0.0 27 58
- 0.369936 1 0 ack 40 ------- 0 1.0 0.0 27 58
0.370 16
r 0.370552 0 1 tcp 1540 ------- 0 0.0 1.0 28 43
+ 0.370552 1 0 ack 40 ------- 0 1.0 0.0 28 59
- 0.370552 1 0 ack 40 ------- 0 1.0 0.0 28 59
0.371 16
r 0.371168 0 1 tcp 1540 ------- 0 0.0 1.0 29 44
+ 0.371168 1 0 ack 40 ------- 0 1.0 0.0 29 60
- 0.371168 1 0 ack 40 ------- 0 1.0 0.0 29 60
r 0.371784 0 1 tcp 1540 ------- 0 0.0 1.0 30 45
+ 0.371784 1 0 ack 40 ------- 0 1.0 0.0 30 61
- 0.371784 1 0 ack 40 ------- 0 1.0 0.0 30 61
0.372 16
0.373 16
0.374 16
0.375 16
0.376 16
0.377 16
0.378 16
0.379 16
0.380 16
0.381 16
0.382 16
0.383 16
0.384 16
0.385 16
0.386 16
0.387 16
0.388 16
0.389 16
0.390 16
0.391 16
0.392 16
0.393 16
0.394 16
0.395 16
0.396 16
0.397 16
0.398 16
0.399 16
0.400 16
0.401 16
0.402 16
r 0.40256 1 0 ack 40 ------- 0 1.0 0.0 15 46
+ 0.40256 0 1 tcp 1540 ------- 0 0.0 1.0 31 62
- 0.40256 0 1 tcp 1540 ------- 0 0.0 1.0 31 62
+ 0.40256 0 1 tcp 1540 ------- 0 0.0 1.0 32 63
0.403 17
r 0.403176 1 0 ack 40 ------- 0 1.0 0.0 16 47
+ 0.403176 0 1 tcp 1540 ------- 0 0.0 1.0 33 64
+ 0.403176 0 1 tcp 1540 ------- 0 0.0 1.0 34 65
- 0.403176 0 1 tcp 1540 ------- 0 0.0 1.0 32 63
r 0.403792 1 0 ack 40 ------- 0 1.0 0.0 17 48
+ 0.403792 0 1 tcp 1540 ------- 0 0.0 1.0 35 66
+ 0.403792 0 1 tcp 1540 ------- 0 0.0 1.0 36 67
- 0.403792 0 1 tcp 1540 ------- 0 0.0 1.0 33 64
0.404 19
r 0.404408 1 0 ack 40 ------- 0 1.0 0.0 18 49
+ 0.404408 0 1 tcp 1540 ------- 0 0.0 1.0 37 68
+ 0.404408 0 1 tcp 1540 ------- 0 0.0 1.0 38 69
- 0.404408 0 1 tcp 1540 ------- 0 0.0 1.0 34 65
0.405 20
r 0.405024 1 0 ack 40 ------- 0 1.0 0.0 19 50
+ 0.405024 0 1 tcp 1540 ------- 0 0.0 1.0 39 70
- 0.405024 0 1 tcp 1540 ------- 0 0.0 1.0 35 66
r 0.40564 1 0 ack 40 ------- 0 1.0 0.0 20 51
+ 0.40564 0 1 tcp 1540 ------- 0 0.0 1.0 40 71
- 0.40564 0 1 tcp 1540 ------- 0 0.0 1.0 36 67
0.406 20.0999
r 0.406256 1 0 ack 40 ------- 0 1.0 0.0 21 52
+ 0.406256 0 1 tcp 1540 ------- 0 0.0 1.0 41 72
- 0.406256 0 1 tcp 1540 ------- 0 0.0 1.0 37 68
r 0.406872 1 0 ack 40 ------- 0 1.0 0.0 22 53
+ 0.406872 0 1 tcp 1540 ------- 0 0.0 1.0 42 73
- 0.406872 0 1 tcp 1540 ------- 0 0.0 1.0 38 69
0.407 20.1993
r 0.407488 1 0 ack 40 ------- 0 1.0 0.0 23 54
+ 0.407488 0 1 tcp 1540 ------- 0 0.0 1.0 43 74
- 0.407488 0 1 tcp 1540 ------- 0 0.0 1.0 39 70
0.408 20.2488
r 0.408104 1 0 ack 40 ------- 0 1.0 0.0 24 55
+ 0.408104 0 1 tcp 1540 ------- 0 0.0 1.0 44 75
- 0.408104 0 1 tcp 1540 ------- 0 0.0 1.0 40 71
r 0.40872 1 0 ack 40 ------- 0 1.0 0.0 25 56
+ 0.40872 0 1 tcp 1540 ------- 0 0.0 1.0 45 76
- 0.40872 0 1 tcp 1540 ------- 0 0.0 1.0 41 72
0.409 20.3474
r 0.409336 1 0 ack 40 ------- 0 1.0 0.0 26 57
+ 0.409336 0 1 tcp 1540 ------- 0 0.0 1.0 46 77
- 0.409336 0 1 tcp 1540 ------- 0 0.0 1.0 42 73
r 0.409952 1 0 ack 40 ------- 0 1.0 0.0 27 58
+ 0.409952 0 1 tcp 1540 ------- 0 0.0 1.0 47 78
- 0.409952 0 1 tcp 1540 ------- 0 0.0 1.0 43 74
0.410 20.4456
r 0.410568 1 0 ack 40 ------- 0 1.0 0.0 28 59
+ 0.410568 0 1 tcp 1540 ------- 0 0.0 1.0 48 79
- 0.410568 0 1 tcp 1540 ------- 0 0.0 1.0 44 75
0.411 20.4945
r 0.411184 1 0 ack 40 ------- 0 1.0 0.0 29 60
+ 0.411184 0 1 tcp 1540 ------- 0 0.0 1.0 49 80
- 0.411184 0 1 tcp 1540 ------- 0 0.0 1.0 45 76
r 0.4118 1 0 ack 40 ------- 0 1.0 0.0 30 61
+ 0.4118 0 1 tcp 1540 ------- 0 0.0 1.0 50 81
- 0.4118 0 1 tcp 1540 ------- 0 0.0 1.0 46 77
0.412 20.592
- 0.412416 0 1 tcp 1540 ------- 0 0.0 1.0 47 78
0.413 20.592
- 0.413032 0 1 tcp 1540 ------- 0 0.0 1.0 48 79
- 0.413648 0 1 tcp 1540 ------- 0 0.0 1.0 49 80
0.414 20.592
- 0.414264 0 1 tcp 1540 ------- 0 0.0 1.0 50 81
0.415 20.592
0.416 20.592
0.417 20.592
0.418 20.592
0.419 20.592
0.420 20.592
0.421 20.592
0.422 20.592
0.423 20.592
0.424 20.592
0.425 20.592
0.426 20.592
0.427 20.592
0.428 20.592
0.429 20.592
0.430 20.592
0.431 20.592
0.432 20.592
0.433 20.592
0.434 20.592
0.435 20.592
0.436 20.592
0.437 20.592
0.438 20.592
0.439 20.592
0.440 20.592
0.441 20.592
0.442 20.592
0.443 20.592
r 0.443176 0 1 tcp 1540 ------- 0 0.0 1.0 31 62
+ 0.443176 1 0 ack 40 ------- 0 1.0 0.0 31 82
- 0.443176 1 0 ack 40 ------- 0 1.0 0.0 31 82
r 0.443792 0 1 tcp 1540 ------- 0 0.0 1.0 32 63
+ 0.443792 1 0 ack 40 ------- 0 1.0 0.0 32 83
- 0.443792 1 0 ack 40 ------- 0 1.0 0.0 32 83
0.444 20.592
r 0.444408 0 1 tcp 1540 ------- 0 0.0 1.0 33 64
+ 0.444408 1 0 ack 40 ------- 0 1.0 0.0 33 84
- 0.444408 1 0 ack 40 ------- 0 1.0 0.0 33 84
0.445 20.592
r 0.445024 0 1 tcp 1540 ------- 0 0.0 1.0 34 65
+ 0.445024 1 0 ack 40 ------- 0 1.0 0.0 34 85
- 0.445024 1 0 ack 40 ------- 0 1.0 0.0 34 85
r 0.44564 0 1 tcp 1540 ------- 0 0.0 1.0 35 66
+ 0.44564 1 0 ack 40 ------- 0 1.0 0.0 35 86
- 0.44564 1 0 ack 40 ------- 0 1.0 0.0 35 86
0.446 20.592
r 0.446256 0 1 tcp 1540 ------- 0 0.0 1.0 36 67
+ 0.446256 1 0 ack 40 ------- 0 1.0 0.0 36 87
- 0.446256 1 0 ack 40 ------- 0 1.0 0.0 36 87
r 0.446872 0 1 tcp 1540 ------- 0 0.0 1.0 37 68
+ 0.446872 1 0 ack 40 ------- 0 1.0 0.0 37 88
- 0.446872 1 0 ack 40 ------- 0 1.0 0.0 37 88
0.447 20.592
r 0.447488 0 1 tcp 1540 ------- 0 0.0 1.0 38 69
+ 0.447488 1 0 ack 40 ------- 0 1.0 0.0 38 89
- 0.447488 1 0 ack 40 ------- 0 1.0 0.0 38 89
0.448 20.592
r 0.448104 0 1 tcp 1540 ------- 0 0.0 1.0 39 70
+ 0.448104 1 0 ack 40 ------- 0 1.0 0.0 39 90
- 0.448104 1 0 ack 40 ------- 0 1.0 0.0 39 90
r 0.44872 0 1 tcp 1540 ------- 0 0.0 1.0 40 71
+ 0.44872 1 0 ack 40 ------- 0 1.0 0.0 40 91
- 0.44872 1 0 ack 40 ------- 0 1.0 0.0 40 91
0.449 20.592
r 0.449336 0 1 tcp 1540 ------- 0 0.0 1.0 41 72
+ 0.449336 1 0 ack 40 ------- 0 1.0 0.0 41 92
- 0.449336 1 0 ack 40 ------- 0 1.0 0.0 41 92
r 0.449952 0 1 tcp 1540 ------- 0 0.0 1.0 42 73
+ 0.449952 1 0 ack 40 ------- 0 1.0 0.0 42 93
- 0.449952 1 0 ack 40 ------- 0 1.0 0.0 42 93
0.450 20.592
r 0.450568 0 1 tcp 1540 ------- 0 0.0 1.0 43 74
+ 0.450568 1 0 ack 40 ------- 0 1.0 0.0 43 94
- 0.450568 1 0 ack 40 ------- 0 1.0 0.0 43 94
0.451 20.592
r 0.451184 0 1 tcp 1540 ------- 0 0.0 1.0 44 75
+ 0.451184 1 0 ack 40 ------- 0 1.0 0.0 44 95
- 0.451184 1 0 ack 40 ------- 0 1.0 0.0 44 95
r 0.4518 0 1 tcp 1540 ------- 0 0.0 1.0 45 76
+ 0.4518 1 0 ack 40 ------- 0 1.0 0.0 45 96
- 0.4518 1 0 ack 40 ------- 0 1.0 0.0 45 96
0.452 20.592
r 0.452416 0 1 tcp 1540 ------- 0 0.0 1.0 46 77
+ 0.452416 1 0 ack 40 ------- 0 1.0 0.0 46 97
- 0.452416 1 0 ack 40 ------- 0 1.0 0.0 46 97
0.453 20.592
r 0.453032 0 1 tcp 1540 ------- 0 0.0 1.0 47 78
+ 0.453032 1 0 ack 40 ------- 0 1.0 0.0 47 98
- 0.453032 1 0 ack 40 ------- 0 1.0 0.0 47 98
r 0.453648 0 1 tcp 1540 ------- 0 0.0 1.0 48 79
+ 0.453648 1 0 ack 40 ------- 0 1.0 0.0 48 99
- 0.453648 1 0 ack 40 ------- 0 1.0 0.0 48 99
0.454 20.592
r 0.454264 0 1 tcp 1540 ------- 0 0.0 1.0 49 80
+ 0.454264 1 0 ack 40 ------- 0 1.0 0.0 49 100
- 0.454264 1 0 ack 40 ------- 0 1.0 0.0 49 100
r 0.45488 0 1 tcp 1540 ------- 0 0.0 1.0 50 81
+ 0.45488 1 0 ack 40 ------- 0 1.0 0.0 50 101
- 0.45488 1 0 ack 40 ------- 0 1.0 0.0 50 101
0.455 20.592
0.456 20.592
0.457 20.592
0.458 20.592
0.459 20.592
0.460 20.592
0.461 20.592
0.462 20.592
0.463 20.592
0.464 20.592
0.465 20.592
0.466 20.592
0.467 20.592
0.468 20.592
0.469 20.592
0.470 20.592
0.471 20.592
0.472 20.592
0.473 20.592
0.474 20.592
0.475 20.592
0.476 20.592
0.477 20.592
0.478 20.592
0.479 20.592
0.480 20.592
0.481 20.592
0.482 20.592
0.483 20.592
r 0.483192 1 0 ack 40 ------- 0 1.0 0.0 31 82
+ 0.483192 0 1 tcp 1540 ------- 0 0.0 1.0 51 102
- 0.483192 0 1 tcp 1540 ------- 0 0.0 1.0 51 102
r 0.483808 1 0 ack 40 ------- 0 1.0 0.0 32 83
+ 0.483808 0 1 tcp 1540 ------- 0 0.0 1.0 52 103
- 0.483808 0 1 tcp 1540 ------- 0 0.0 1.0 52 103
0.484 20.689
r 0.484424 1 0 ack 40 ------- 0 1.0 0.0 33 84
+ 0.484424 0 1 tcp 1540 ------- 0 0.0 1.0 53 104
- 0.484424 0 1 tcp 1540 ------- 0 0.0 1.0 53 104
0.485 20.7373
r 0.48504 1 0 ack 40 ------- 0 1.0 0.0 34 85
+ 0.48504 0 1 tcp 1540 ------- 0 0.0 1.0 54 105
- 0.48504 0 1 tcp 1540 ------- 0 0.0 1.0 54 105
r 0.485656 1 0 ack 40 ------- 0 1.0 0.0 35 86
+ 0.485656 0 1 tcp 1540 ------- 0 0.0 1.0 55 106
- 0.485656 0 1 tcp 1540 ------- 0 0.0 1.0 55 106
0.486 20.8336
r 0.486272 1 0 ack 40 ------- 0 1.0 0.0 36 87
+ 0.486272 0 1 tcp 1540 ------- 0 0.0 1.0 56 107
- 0.486272 0 1 tcp 1540 ------- 0 0.0 1.0 56 107
r 0.486888 1 0 ack 40 ------- 0 1.0 0.0 37 88
+ 0.486888 0 1 tcp 1540 ------- 0 0.0 1.0 57 108
- 0.486888 0 1 tcp 1540 ------- 0 0.0 1.0 57 108
0.487 20.9295
r 0.487504 1 0 ack 40 ------- 0 1.0 0.0 38 89
+ 0.487504 0 1 tcp 1540 ------- 0 0.0 1.0 58 109
- 0.487504 0 1 tcp 1540 ------- 0 0.0 1.0 58 109
0.488 20.9773
r 0.48812 1 0 ack 40 ------- 0 1.0 0.0 39 90
+ 0.48812 0 1 tcp 1540 ------- 0 0.0 1.0 59 110
- 0.48812 0 1 tcp 1540 ------- 0 0.0 1.0 59 110
r 0.488736 1 0 ack 40 ------- 0 1.0 0.0 40 91
+ 0.488736 0 1 tcp 1540 ------- 0 0.0 1.0 60 111
- 0.488736 0 1 tcp 1540 ------- 0 0.0 1.0 60 111
0.489 21.0725
r 0.489352 1 0 ack 40 ------- 0 1.0 0.0 41 92
+ 0.489352 0 1 tcp 1540 ------- 0 0.0 1.0 61 112
- 0.489352 0 1 tcp 1540 ------- 0 0.0 1.0 61 112
r 0.489968 1 0 ack 40 ------- 0 1.0 0.0 42 93
+ 0.489968 0 1 tcp 1540 ------- 0 0.0 1.0 62 113
- 0.489968 0 1 tcp 1540 ------- 0 0.0 1.0 62 113
0.490 21.1674
r 0.490584 1 0 ack 40 ------- 0 1.0 0.0 43 94
+ 0.490584 0 1 tcp 1540 ------- 0 0.0 1.0 63 114
- 0.490584 0 1 tcp 1540 ------- 0 0.0 1.0 63 114
0.491 21.2146
r 0.4912 1 0 ack 40 ------- 0 1.0 0.0 44 95
+ 0.4912 0 1 tcp 1540 ------- 0 0.0 1.0 64 115
- 0.4912 0 1 tcp 1540 ------- 0 0.0 1.0 64 115
r 0.491816 1 0 ack 40 ------- 0 1.0 0.0 45 96
+ 0.491816 0 1 tcp 1540 ------- 0 0.0 1.0 65 116
- 0.491816 0 1 tcp 1540 ------- 0 0.0 1.0 65 116
0.492 21.3088
r 0.492432 1 0 ack 40 ------- 0 1.0 0.0 46 97
+ 0.492432 0 1 tcp 1540 ------- 0 0.0 1.0 66 117
- 0.492432 0 1 tcp 1540 ------- 0 0.0 1.0 66 117
0.493 21.3557
r 0.493048 1 0 ack 40 ------- 0 1.0 0.0 47 98
+ 0.493048 0 1 tcp 1540 ------- 0 0.0 1.0 67 118
- 0.493048 0 1 tcp 1540 ------- 0 0.0 1.0 67 118
r 0.493664 1 0 ack 40 ------- 0 1.0 0.0 48 99
+ 0.493664 0 1 tcp 1540 ------- 0 0.0 1.0 68 119
- 0.493664 0 1 tcp 1540 ------- 0 0.0 1.0 68 119
0.494 21.4492
r 0.49428 1 0 ack 40 ------- 0 1.0 0.0 49 100
+ 0.49428 0 1 tcp 1540 ------- 0 0.0 1.0 69 120
- 0.49428 0 1 tcp 1540 ------- 0 0.0 1.0 69 120
r 0.494896 1 0 ack 40 ------- 0 1.0 0.0 50 101
+ 0.494896 0 1 tcp 1540 ------- 0 0.0 1.0 70 121
- 0.494896 0 1 tcp 1540 ------- 0 0.0 1.0 70 121
0.495 21.5424
0.496 21.5424
0.497 21.5424
0.498 21.5424
0.499 21.5424
0.500 21.5424
0.501 21.5424
0.502 21.5424
0.503 21.5424
0.504 21.5424
0.505 21.5424
0.506 21.5424
0.507 21.5424
0.508 21.5424
0.509 21.5424
0.510 21.5424
0.511 21.5424
0.512 21.5424
0.513 21.5424
0.514 21.5424
0.515 21.5424
0.516 21.5424
0.517 21.5424
0.518 21.5424
0.519 21.5424
0.520 21.5424
0.521 21.5424
0.522 21.5424
0.523 21.5424
r 0.523808 0 1 tcp 1540 ------- 0 0.0 1.0 51 102
+ 0.523808 1 0 ack 40 ------- 0 1.0 0.0 51 122
- 0.523808 1 0 ack 40 ------- 0 1.0 0.0 51 122
0.524 21.5424
r 0.524424 0 1 tcp 1540 ------- 0 0.0 1.0 52 103
+ 0.524424 1 0 ack 40 ------- 0 1.0 0.0 52 123
- 0.524424 1 0 ack 40 ------- 0 1.0 0.0 52 123
0.525 21.5424
r 0.52504 0 1 tcp 1540 ------- 0 0.0 1.0 53 104
+ 0.52504 1 0 ack 40 ------- 0 1.0 0.0 53 124
- 0.52504 1 0 ack 40 ------- 0 1.0 0.0 53 124
r 0.525656 0 1 tcp 1540 ------- 0 0.0 1.0 54 105
+ 0.525656 1 0 ack 40 ------- 0 1.0 0.0 54 125
- 0.525656 1 0 ack 40 ------- 0 1.0 0.0 54 125
0.526 21.5424
r 0.526272 0 1 tcp 1540 ------- 0 0.0 1.0 55 106
+ 0.526272 1 0 ack 40 ------- 0 1.0 0.0 55 126
- 0.526272 1 0 ack 40 ------- 0 1.0 0.0 55 126
r 0.526888 0 1 tcp 1540 ------- 0 0.0 1.0 56 107
+ 0.526888 1 0 ack 40 ------- 0 1.0 0.0 56 127
- 0.526888 1 0 ack 40 ------- 0 1.0 0.0 56 127
0.527 21.5424
r 0.527504 0 1 tcp 1540 ------- 0 0.0 1.0 57 108
+ 0.527504 1 0 ack 40 ------- 0 1.0 0.0 57 128
- 0.527504 1 0 ack 40 ------- 0 1.0 0.0 57 128
0.528 21.5424
r 0.52812 0 1 tcp 1540 ------- 0 0.0 1.0 58 109
+ 0.52812 1 0 ack 40 ------- 0 1.0 0.0 58 129
- 0.52812 1 0 ack 40 ------- 0 1.0 0.0 58 129
r 0.528736 0 1 tcp 1540 ------- 0 0.0 1.0 59 110
+ 0.528736 1 0 ack 40 ------- 0 1.0 0.0 59 130
- 0.528736 1 0 ack 40 ------- 0 1.0 0.0 59 130
0.529 21.5424
r 0.529352 0 1 tcp 1540 ------- 0 0.0 1.0 60 111
+ 0.529352 1 0 ack 40 ------- 0 1.0 0.0 60 131
- 0.529352 1 0 ack 40 ------- 0 1.0 0.0 60 131
r 0.529968 0 1 tcp 1540 ------- 0 0.0 1.0 61 112
+ 0.529968 1 0 ack 40 ------- 0 1.0 0.0 61 132
- 0.529968 1 0 ack 40 ------- 0 1.0 0.0 61 132
0.530 21.5424
r 0.530584 0 1 tcp 1540 ------- 0 0.0 1.0 62 113
+ 0.530584 1 0 ack 40 ------- 0 1.0 0.0 62 133
- 0.530584 1 0 ack 40 ------- 0 1.0 0.0 62 133
0.531 21.5424
r 0.5312 0 1 tcp 1540 ------- 0 0.0 1.0 63 114
+ 0.5312 1 0 ack 40 ------- 0 1.0 0.0 63 134
- 0.5312 1 0 ack 40 ------- 0 1.0 0.0 63 134
r 0.531816 0 1 tcp 1540 ------- 0 0.0 1.0 64 115
+ 0.531816 1 0 ack 40 ------- 0 1.0 0.0 64 135
- 0.531816 1 0 ack 40 ------- 0 1.0 0.0 64 135
0.532 21.5424
r 0.532432 0 1 tcp 1540 ------- 0 0.0 1.0 65 116
+ 0.532432 1 0 ack 40 ------- 0 1.0 0.0 65 136
- 0.532432 1 0 ack 40 ------- 0 1.0 0.0 65 136
0.533 21.5424
r 0.533048 0 1 tcp 1540 ------- 0 0.0 1.0 66 117
+ 0.533048 1 0 ack 40 ------- 0 1.0 0.0 66 137
- 0.533048 1 0 ack 40 ------- 0 1.0 0.0 66 137
r 0.533664 0 1 tcp 1540 ------- 0 0.0 1.0 67 118
+ 0.533664 1 0 ack 40 ------- 0 1.0 0.0 67 138
- 0.533664 1 0 ack 40 ------- 0 1.0 0.0 67 138
0.534 21.5424
r 0.53428 0 1 tcp 1540 ------- 0 0.0 1.0 68 119
+ 0.53428 1 0 ack 40 ------- 0 1.0 0.0 68 139
- 0.53428 1 0 ack 40 ------- 0 1.0 0.0 68 139
r 0.534896 0 1 tcp 1540 ------- 0 0.0 1.0 69 120
+ 0.534896 1 0 ack 40 ------- 0 1.0 0.0 69 140
- 0.534896 1 0 ack 40 ------- 0 1.0 0.0 69 140
0.535 21.5424
r 0.535512 0 1 tcp 1540 ------- 0 0.0 1.0 70 121
+ 0.535512 1 0 ack 40 ------- 0 1.0 0.0 70 141
- 0.535512 1 0 ack 40 ------- 0 1.0 0.0 70 141
0.536 21.5424
0.537 21.5424
0.538 21.5424
0.539 21.5424
0.540 21.5424
0.541 21.5424
0.542 21.5424
0.543 21.5424
0.544 21.5424
0.545 21.5424
0.546 21.5424
0.547 21.5424
0.548 21.5424
0.549 21.5424
0.550 21.5424
0.551 21.5424
0.552 21.5424
0.553 21.5424
0.554 21.5424
0.555 21.5424
0.556 21.5424
0.557 21.5424
0.558 21.5424
0.559 21.5424
0.560 21.5424
0.561 21.5424
0.562 21.5424
0.563 21.5424
r 0.563824 1 0 ack 40 ------- 0 1.0 0.0 51 122
+ 0.563824 0 1 tcp 1540 ------- 0 0.0 1.0 71 142
- 0.563824 0 1 tcp 1540 ------- 0 0.0 1.0 71 142
0.564 21.5888
r 0.56444 1 0 ack 40 ------- 0 1.0 0.0 52 123
+ 0.56444 0 1 tcp 1540 ------- 0 0.0 1.0 72 143
- 0.56444 0 1 tcp 1540 ------- 0 0.0 1.0 72 143
0.565 21.6351
r 0.565056 1 0 ack 40 ------- 0 1.0 0.0 53 124
+ 0.565056 0 1 tcp 1540 ------- 0 0.0 1.0 73 144
- 0.565056 0 1 tcp 1540 ------- 0 0.0 1.0 73 144
r 0.565672 1 0 ack 40 ------- 0 1.0 0.0 54 125
+ 0.565672 0 1 tcp 1540 ------- 0 0.0 1.0 74 145
- 0.565672 0 1 tcp 1540 ------- 0 0.0 1.0 74 145
0.566 21.7275
r 0.566288 1 0 ack 40 ------- 0 1.0 0.0 55 126
+ 0.566288 0 1 tcp 1540 ------- 0 0.0 1.0 75 146
- 0.566288 0 1 tcp 1540 ------- 0 0.0 1.0 75 146
r 0.566904 1 0 ack 40 ------- 0 1.0 0.0 56 127
+ 0.566904 0 1 tcp 1540 ------- 0 0.0 1.0 76 147
- 0.566904 0 1 tcp 1540 ------- 0 0.0 1.0 76 147
0.567 21.8194
r 0.56752 1 0 ack 40 ------- 0 1.0 0.0 57 128
+ 0.56752 0 1 tcp 1540 ------- 0 0.0 1.0 77 148
- 0.56752 0 1 tcp 1540 ------- 0 0.0 1.0 77 148
0.568 21.8653
r 0.568136 1 0 ack 40 ------- 0 1.0 0.0 58 129
+ 0.568136 0 1 tcp 1540 ------- 0 0.0 1.0 78 149
- 0.568136 0 1 tcp 1540 ------- 0 0.0 1.0 78 149
r 0.568752 1 0 ack 40 ------- 0 1.0 0.0 59 130
+ 0.568752 0 1 tcp 1540 ------- 0 0.0 1.0 79 150
- 0.568752 0 1 tcp 1540 ------- 0 0.0 1.0 79 150
0.569 21.9566
r 0.569368 1 0 ack 40 ------- 0 1.0 0.0 60 131
+ 0.569368 0 1 tcp 1540 ------- 0 0.0 1.0 80 151
- 0.569368 0 1 tcp 1540 ------- 0 0.0 1.0 80 151
r 0.569984 1 0 ack 40 ------- 0 1.0 0.0 61 132
+ 0.569984 0 1 tcp 1540 ------- 0 0.0 1.0 81 152
- 0.569984 0 1 tcp 1540 ------- 0 0.0 1.0 81 152
0.570 22.0476
r 0.5706 1 0 ack 40 ------- 0 1.0 0.0 62 133
+ 0.5706 0 1 tcp 1540 ------- 0 0.0 1.0 82 153
- 0.5706 0 1 tcp 1540 ------- 0 0.0 1.0 82 153
0.571 22.093
r 0.571216 1 0 ack 40 ------- 0 1.0 0.0 63 134
+ 0.571216 0 1 tcp 1540 ------- 0 0.0 1.0 83 154
- 0.571216 0 1 tcp 1540 ------- 0 0.0 1.0 83 154
r 0.571832 1 0 ack 40 ------- 0 1.0 0.0 64 135
+ 0.571832 0 1 tcp 1540 ------- 0 0.0 1.0 84 155
- 0.571832 0 1 tcp 1540 ------- 0 0.0 1.0 84 155
0.572 22.1834
r 0.572448 1 0 ack 40 ------- 0 1.0 0.0 65 136
+ 0.572448 0 1 tcp 1540 ------- 0 0.0 1.0 85 156
- 0.572448 0 1 tcp 1540 ------- 0 0.0 1.0 85 156
0.573 22.2285
r 0.573064 1 0 ack 40 ------- 0 1.0 0.0 66 137
+ 0.573064 0 1 tcp 1540 ------- 0 0.0 1.0 86 157
- 0.573064 0 1 tcp 1540 ------- 0 0.0 1.0 86 157
r 0.57368 1 0 ack 40 ------- 0 1.0 0.0 67 138
+ 0.57368 0 1 tcp 1540 ------- 0 0.0 1.0 87 158
- 0.57368 0 1 tcp 1540 ------- 0 0.0 1.0 87 158
0.574 22.3184
r 0.574296 1 0 ack 40 ------- 0 1.0 0.0 68 139
+ 0.574296 0 1 tcp 1540 ------- 0 0.0 1.0 88 159
- 0.574296 0 1 tcp 1540 ------- 0 0.0 1.0 88 159
r 0.574912 1 0 ack 40 ------- 0 1.0 0.0 69 140
+ 0.574912 0 1 tcp 1540 ------- 0 0.0 1.0 89 160
- 0.574912 0 1 tcp 1540 ------- 0 0.0 1.0 89 160
0.575 22.4079
r 0.575528 1 0 ack 40 ------- 0 1.0 0.0 70 141
+ 0.575528 0 1 tcp 1540 ------- 0 0.0 1.0 90 161
- 0.575528 0 1 tcp 1540 ------- 0 0.0 1.0 90 161
0.576 22.4525
0.577 22.4525
0.578 22.4525
0.579 22.4525
0.580 22.4525
0.581 22.4525
0.582 22.4525
0.583 22.4525
0.584 22.4525
0.585 22.4525
0.586 22.4525
0.587 22.4525
0.588 22.4525
0.589 22.4525
0.590 22.4525
0.591 22.4525
0.592 22.4525
0.593 22.4525
0.594 22.4525
0.595 22.4525
0.596 22.4525
0.597 22.4525
0.598 22.4525
0.599 22.4525
0.600 22.4525
0.601 22.4525
0.602 22.4525
0.603 22.4525
0.604 22.4525
r 0.60444 0 1 tcp 1540 ------- 0 0.0 1.0 71 142
+ 0.60444 1 0 ack 40 ------- 0 1.0 0.0 71 162
- 0.60444 1 0 ack 40 ------- 0 1.0 0.0 71 162
0.605 22.4525
r 0.605056 0 1 tcp 1540 ------- 0 0.0 1.0 72 143
+ 0.605056 1 0 ack 40 ------- 0 1.0 0.0 72 163
- 0.605056 1 0 ack 40 ------- 0 1.0 0.0 72 163
r 0.605672 0 1 tcp 1540 ------- 0 0.0 1.0 73 144
+ 0.605672 1 0 ack 40 ------- 0 1.0 0.0 73 164
- 0.605672 1 0 ack 40 ------- 0 1.0 0.0 73 164
0.606 22.4525
r 0.606288 0 1 tcp 1540 ------- 0 0.0 1.0 74 145
+ 0.606288 1 0 ack 40 ------- 0 1.0 0.0 74 165
- 0.606288 1 0 ack 40 ------- 0 1.0 0.0 74 165
r 0.606904 0 1 tcp 1540 ------- 0 0.0 1.0 75 146
+ 0.606904 1 0 ack 40 ------- 0 1.0 0.0 75 166
- 0.606904 1 0 ack 40 ------- 0 1.0 0.0 75 166
0.607 22.4525
r 0.60752 0 1 tcp 1540 ------- 0 0.0 1.0 76 147
+ 0.60752 1 0 ack 40 ------- 0 1.0 0.0 76 167
- 0.60752 1 0 ack 40 ------- 0 1.0 0.0 76 167
0.608 22.4525
r 0.608136 0 1 tcp 1540 ------- 0 0.0 1.0 77 148
+ 0.608136 1 0 ack 40 ------- 0 1.0 0.0 77 168
- 0.608136 1 0 ack 40 ------- 0 1.0 0.0 77 168
r 0.608752 0 1 tcp 1540 ------- 0 0.0 1.0 78 149
+ 0.608752 1 0 ack 40 ------- 0 1.0 0.0 78 169
- 0.608752 1 0 ack 40 ------- 0 1.0 0.0 78 169
0.609 22.4525
r 0.609368 0 1 tcp 1540 ------- 0 0.0 1.0 79 150
+ 0.609368 1 0 ack 40 ------- 0 1.0 0.0 79 170
- 0.609368 1 0 ack 40 ------- 0 1.0 0.0 79 170
r 0.609984 0 1 tcp 1540 ------- 0 0.0 1.0 80 151
+ 0.609984 1 0 ack 40 ------- 0 1.0 0.0 80 171
- 0.609984 1 0 ack 40 ------- 0 1.0 0.0 80 171
0.610 22.4525
r 0.6106 0 1 tcp 1540 ------- 0 0.0 1.0 81 152
+ 0.6106 1 0 ack 40 ------- 0 1.0 0.0 81 172
- 0.6106 1 0 ack 40 ------- 0 1.0 0.0 81 172
0.611 22.4525
r 0.611216 0 1 tcp 1540 ------- 0 0.0 1.0 82 153
+ 0.611216 1 0 ack 40 ------- 0 1.0 0.0 82 173
- 0.611216 1 0 ack 40 ------- 0 1.0 0.0 82 173
r 0.611832 0 1 tcp 1540 ------- 0 0.0 1.0 83 154
+ 0.611832 1 0 ack 40 ------- 0 1.0 0.0 83 174
- 0.611832 1 0 ack 40 ------- 0 1.0 0.0 83 174
0.612 22.4525
r 0.612448 0 1 tcp 1540 ------- 0 0.0 1.0 84 155
+ 0.612448 1 0 ack 40 ------- 0 1.0 0.0 84 175