+ 0 0 1 tcp 40 ------- 0 0.0 1.0 0 0
- 0 0 1 tcp 40 ------- 0 0.0 1.0 0 0
0.000 1
0.001 1
0.002 1
0.003 1
0.004 1
0.005 1
0.006 1
0.007 1
0.008 1
0.009 1
0.010 1
0.011 1
0.012 1
0.013 1
0.014 1
0.015 1
0.016 1
0.017 1
0.018 1
0.019 1
0.020 1
0.021 1
0.022 1
0.023 1
0.024 1
0.025 1
0.026 1
0.027 1
0.028 1
0.029 1
0.030 1
0.031 1
0.032 1
0.033 1
0.034 1
0.035 1
0.036 1
0.037 1
0.038 1
0.039 1
0.040 1
r 0.040032 0 1 tcp 40 ------- 0 0.0 1.0 0 0
+ 0.040032 1 0 ack 40 ------- 0 1.0 0.0 0 1
- 0.040032 1 0 ack 40 ------- 0 1.0 0.0 0 1
0.041 1
0.042 1
0.043 1
0.044 1
0.045 1
0.046 1
0.047 1
0.048 1
0.049 1
0.050 1
0.051 1
0.052 1
0.053 1
0.054 1
0.055 1
0.056 1
0.057 1
0.058 1
0.059 1
0.060 1
0.061 1
0.062 1
0.063 1
0.064 1
0.065 1
0.066 1
0.067 1
0.068 1
0.069 1
0.070 1
0.071 1
0.072 1
0.073 1
0.074 1
0.075 1
0.076 1
0.077 1
0.078 1
0.079 1
0.080 1
r 0.080064 1 0 ack 40 ------- 0 1.0 0.0 0 1
+ 0.080064 0 1 tcp 1540 ------- 0 0.0 1.0 1 2
- 0.080064 0 1 tcp 1540 ------- 0 0.0 1.0 1 2
+ 0.080064 0 1 tcp 1540 ------- 0 0.0 1.0 2 3
0.081 2
- 0.081296 0 1 tcp 1540 ------- 0 0.0 1.0 2 3
0.082 2
0.083 2
0.084 2
0.085 2
0.086 2
0.087 2
0.088 2
0.089 2
0.090 2
0.091 2
0.092 2
0.093 2
0.094 2
0.095 2
0.096 2
0.097 2
0.098 2
0.099 2
0.100 2
0.101 2
0.102 2
0.103 2
0.104 2
0.105 2
0.106 2
0.107 2
0.108 2
0.109 2
0.110 2
0.111 2
0.112 2
0.113 2
0.114 2
0.115 2
0.116 2
0.117 2
0.118 2
0.119 2
0.120 2
0.121 2
r 0.121296 0 1 tcp 1540 ------- 0 0.0 1.0 1 2
+ 0.121296 1 0 ack 40 ------- 0 1.0 0.0 1 4
- 0.121296 1 0 ack 40 ------- 0 1.0 0.0 1 4
0.122 2
r 0.122528 0 1 tcp 1540 ------- 0 0.0 1.0 2 3
+ 0.122528 1 0 ack 40 ------- 0 1.0 0.0 2 5
- 0.122528 1 0 ack 40 ------- 0 1.0 0.0 2 5
0.123 2
0.124 2
0.125 2
0.126 2
0.127 2
0.128 2
0.129 2
0.130 2
0.131 2
0.132 2
0.133 2
0.134 2
0.135 2
0.136 2
0.137 2
0.138 2
0.139 2
0.140 2
0.141 2
0.142 2
0.143 2
0.144 2
0.145 2
0.146 2
0.147 2
0.148 2
0.149 2
0.150 2
0.151 2
0.152 2
0.153 2
0.154 2
0.155 2
0.156 2
0.157 2
0.158 2
0.159 2
0.160 2
0.161 2
r 0.161328 1 0 ack 40 ------- 0 1.0 0.0 1 4
+ 0.161328 0 1 tcp 1540 ------- 0 0.0 1.0 3 6
- 0.161328 0 1 tcp 1540 ------- 0 0.0 1.0 3 6
+ 0.161328 0 1 tcp 1540 ------- 0 0.0 1.0 4 7
0.162 3
r 0.16256 1 0 ack 40 ------- 0 1.0 0.0 2 5
+ 0.16256 0 1 tcp 1540 ------- 0 0.0 1.0 5 8
+ 0.16256 0 1 tcp 1540 ------- 0 0.0 1.0 6 9
- 0.16256 0 1 tcp 1540 ------- 0 0.0 1.0 4 7
0.163 4
- 0.163792 0 1 tcp 1540 ------- 0 0.0 1.0 5 8
0.164 4
0.165 4
- 0.165024 0 1 tcp 1540 ------- 0 0.0 1.0 6 9
0.166 4
0.167 4
0.168 4
0.169 4
0.170 4
0.171 4
0.172 4
0.173 4
0.174 4
0.175 4
0.176 4
0.177 4
0.178 4
0.179 4
0.180 4
0.181 4
0.182 4
0.183 4
0.184 4
0.185 4
0.186 4
0.187 4
0.188 4
0.189 4
0.190 4
0.191 4
0.192 4
0.193 4
0.194 4
0.195 4
0.196 4
0.197 4
0.198 4
0.199 4
0.200 4
0.201 4
0.202 4
r 0.20256 0 1 tcp 1540 ------- 0 0.0 1.0 3 6
+ 0.20256 1 0 ack 40 ------- 0 1.0 0.0 3 10
- 0.20256 1 0 ack 40 ------- 0 1.0 0.0 3 10
0.203 4
r 0.203792 0 1 tcp 1540 ------- 0 0.0 1.0 4 7
+ 0.203792 1 0 ack 40 ------- 0 1.0 0.0 4 11
- 0.203792 1 0 ack 40 ------- 0 1.0 0.0 4 11
0.204 4
0.205 4
r 0.205024 0 1 tcp 1540 ------- 0 0.0 1.0 5 8
+ 0.205024 1 0 ack 40 ------- 0 1.0 0.0 5 12
- 0.205024 1 0 ack 40 ------- 0 1.0 0.0 5 12
0.206 4
r 0.206256 0 1 tcp 1540 ------- 0 0.0 1.0 6 9
+ 0.206256 1 0 ack 40 ------- 0 1.0 0.0 6 13
- 0.206256 1 0 ack 40 ------- 0 1.0 0.0 6 13
0.207 4
0.208 4
0.209 4
0.210 4
0.211 4
0.212 4
0.213 4
0.214 4
0.215 4
0.216 4
0.217 4
0.218 4
0.219 4
0.220 4
0.221 4
0.222 4
0.223 4
0.224 4
0.225 4
0.226 4
0.227 4
0.228 4
0.229 4
0.230 4
0.231 4
0.232 4
0.233 4
0.234 4
0.235 4
0.236 4
0.237 4
0.238 4
0.239 4
0.240 4
0.241 4
0.242 4
r 0.242592 1 0 ack 40 ------- 0 1.0 0.0 3 10
+ 0.242592 0 1 tcp 1540 ------- 0 0.0 1.0 7 14
- 0.242592 0 1 tcp 1540 ------- 0 0.0 1.0 7 14
+ 0.242592 0 1 tcp 1540 ------- 0 0.0 1.0 8 15
0.243 5
r 0.243824 1 0 ack 40 ------- 0 1.0 0.0 4 11
+ 0.243824 0 1 tcp 1540 ------- 0 0.0 1.0 9 16
+ 0.243824 0 1 tcp 1540 ------- 0 0.0 1.0 10 17
- 0.243824 0 1 tcp 1540 ------- 0 0.0 1.0 8 15
0.244 6
0.245 6
r 0.245056 1 0 ack 40 ------- 0 1.0 0.0 5 12
+ 0.245056 0 1 tcp 1540 ------- 0 0.0 1.0 11 18
+ 0.245056 0 1 tcp 1540 ------- 0 0.0 1.0 12 19
- 0.245056 0 1 tcp 1540 ------- 0 0.0 1.0 9 16
0.246 7
r 0.246288 1 0 ack 40 ------- 0 1.0 0.0 6 13
+ 0.246288 0 1 tcp 1540 ------- 0 0.0 1.0 13 20
+ 0.246288 0 1 tcp 1540 ------- 0 0.0 1.0 14 21
- 0.246288 0 1 tcp 1540 ------- 0 0.0 1.0 10 17
0.247 8
- 0.24752 0 1 tcp 1540 ------- 0 0.0 1.0 11 18
0.248 8
- 0.248752 0 1 tcp 1540 ------- 0 0.0 1.0 12 19
0.249 8
- 0.249984 0 1 tcp 1540 ------- 0 0.0 1.0 13 20
0.250 8
0.251 8
- 0.251216 0 1 tcp 1540 ------- 0 0.0 1.0 14 21
0.252 8
0.253 8
0.254 8
0.255 8
0.256 8
0.257 8
0.258 8
0.259 8
0.260 8
0.261 8
0.262 8
0.263 8
0.264 8
0.265 8
0.266 8
0.267 8
0.268 8
0.269 8
0.270 8
0.271 8
0.272 8
0.273 8
0.274 8
0.275 8
0.276 8
0.277 8
0.278 8
0.279 8
0.280 8
0.281 8
0.282 8
0.283 8
r 0.283824 0 1 tcp 1540 ------- 0 0.0 1.0 7 14
+ 0.283824 1 0 ack 40 ------- 0 1.0 0.0 7 22
- 0.283824 1 0 ack 40 ------- 0 1.0 0.0 7 22
0.284 8
0.285 8
r 0.285056 0 1 tcp 1540 ------- 0 0.0 1.0 8 15
+ 0.285056 1 0 ack 40 ------- 0 1.0 0.0 8 23
- 0.285056 1 0 ack 40 ------- 0 1.0 0.0 8 23
0.286 8
r 0.286288 0 1 tcp 1540 ------- 0 0.0 1.0 9 16
+ 0.286288 1 0 ack 40 ------- 0 1.0 0.0 9 24
- 0.286288 1 0 ack 40 ------- 0 1.0 0.0 9 24
0.287 8
r 0.28752 0 1 tcp 1540 ------- 0 0.0 1.0 10 17
+ 0.28752 1 0 ack 40 ------- 0 1.0 0.0 10 25
- 0.28752 1 0 ack 40 ------- 0 1.0 0.0 10 25
0.288 8
r 0.288752 0 1 tcp 1540 ------- 0 0.0 1.0 11 18
+ 0.288752 1 0 ack 40 ------- 0 1.0 0.0 11 26
- 0.288752 1 0 ack 40 ------- 0 1.0 0.0 11 26
0.289 8
r 0.289984 0 1 tcp 1540 ------- 0 0.0 1.0 12 19
+ 0.289984 1 0 ack 40 ------- 0 1.0 0.0 12 27
- 0.289984 1 0 ack 40 ------- 0 1.0 0.0 12 27
0.290 8
0.291 8
r 0.291216 0 1 tcp 1540 ------- 0 0.0 1.0 13 20
+ 0.291216 1 0 ack 40 ------- 0 1.0 0.0 13 28
- 0.291216 1 0 ack 40 ------- 0 1.0 0.0 13 28
0.292 8
r 0.292448 0 1 tcp 1540 ------- 0 0.0 1.0 14 21
+ 0.292448 1 0 ack 40 ------- 0 1.0 0.0 14 29
- 0.292448 1 0 ack 40 ------- 0 1.0 0.0 14 29
0.293 8
0.294 8
0.295 8
0.296 8
0.297 8
0.298 8
0.299 8
0.300 8
0.301 8
0.302 8
0.303 8
0.304 8
0.305 8
0.306 8
0.307 8
0.308 8
0.309 8
0.310 8
0.311 8
0.312 8
0.313 8
0.314 8
0.315 8
0.316 8
0.317 8
0.318 8
0.319 8
0.320 8
0.321 8
0.322 8
0.323 8
r 0.323856 1 0 ack 40 ------- 0 1.0 0.0 7 22
+ 0.323856 0 1 tcp 1540 ------- 0 0.0 1.0 15 30
- 0.323856 0 1 tcp 1540 ------- 0 0.0 1.0 15 30
+ 0.323856 0 1 tcp 1540 ------- 0 0.0 1.0 16 31
0.324 9
0.325 9
r 0.325088 1 0 ack 40 ------- 0 1.0 0.0 8 23
+ 0.325088 0 1 tcp 1540 ------- 0 0.0 1.0 17 32
+ 0.325088 0 1 tcp 1540 ------- 0 0.0 1.0 18 33
- 0.325088 0 1 tcp 1540 ------- 0 0.0 1.0 16 31
0.326 10
r 0.32632 1 0 ack 40 ------- 0 1.0 0.0 9 24
+ 0.32632 0 1 tcp 1540 ------- 0 0.0 1.0 19 34
+ 0.32632 0 1 tcp 1540 ------- 0 0.0 1.0 20 35
- 0.32632 0 1 tcp 1540 ------- 0 0.0 1.0 17 32
0.327 11
r 0.327552 1 0 ack 40 ------- 0 1.0 0.0 10 25
+ 0.327552 0 1 tcp 1540 ------- 0 0.0 1.0 21 36
+ 0.327552 0 1 tcp 1540 ------- 0 0.0 1.0 22 37
- 0.327552 0 1 tcp 1540 ------- 0 0.0 1.0 18 33
0.328 12
r 0.328784 1 0 ack 40 ------- 0 1.0 0.0 11 26
+ 0.328784 0 1 tcp 1540 ------- 0 0.0 1.0 23 38
+ 0.328784 0 1 tcp 1540 ------- 0 0.0 1.0 24 39
- 0.328784 0 1 tcp 1540 ------- 0 0.0 1.0 19 34
0.329 13
0.330 13
r 0.330016 1 0 ack 40 ------- 0 1.0 0.0 12 27
+ 0.330016 0 1 tcp 1540 ------- 0 0.0 1.0 25 40
+ 0.330016 0 1 tcp 1540 ------- 0 0.0 1.0 26 41
- 0.330016 0 1 tcp 1540 ------- 0 0.0 1.0 20 35
0.331 14
r 0.331248 1 0 ack 40 ------- 0 1.0 0.0 13 28
+ 0.331248 0 1 tcp 1540 ------- 0 0.0 1.0 27 42
+ 0.331248 0 1 tcp 1540 ------- 0 0.0 1.0 28 43
- 0.331248 0 1 tcp 1540 ------- 0 0.0 1.0 21 36
0.332 15
r 0.33248 1 0 ack 40 ------- 0 1.0 0.0 14 29
+ 0.33248 0 1 tcp 1540 ------- 0 0.0 1.0 29 44
- 0.33248 0 1 tcp 1540 ------- 0 0.0 1.0 22 37
0.333 15
- 0.333712 0 1 tcp 1540 ------- 0 0.0 1.0 23 38
0.334 15
- 0.334944 0 1 tcp 1540 ------- 0 0.0 1.0 24 39
0.335 15
0.336 15
- 0.336176 0 1 tcp 1540 ------- 0 0.0 1.0 25 40
0.337 15
- 0.337408 0 1 tcp 1540 ------- 0 0.0 1.0 26 41
0.338 15
- 0.33864 0 1 tcp 1540 ------- 0 0.0 1.0 27 42
0.339 15
- 0.339872 0 1 tcp 1540 ------- 0 0.0 1.0 28 43
0.340 15
0.341 15
- 0.341104 0 1 tcp 1540 ------- 0 0.0 1.0 29 44
0.342 15
0.343 15
0.344 15
0.345 15
0.346 15
0.347 15
0.348 15
0.349 15
0.350 15
0.351 15
0.352 15
0.353 15
0.354 15
0.355 15
0.356 15
0.357 15
0.358 15
0.359 15
0.360 15
0.361 15
0.362 15
0.363 15
0.364 15
0.365 15
r 0.365088 0 1 tcp 1540 ------- 0 0.0 1.0 15 30
+ 0.365088 1 0 ack 40 ------- 0 1.0 0.0 15 45
- 0.365088 1 0 ack 40 ------- 0 1.0 0.0 15 45
0.366 15
r 0.36632 0 1 tcp 1540 ------- 0 0.0 1.0 16 31
+ 0.36632 1 0 ack 40 ------- 0 1.0 0.0 16 46
- 0.36632 1 0 ack 40 ------- 0 1.0 0.0 16 46
0.367 15
r 0.367552 0 1 tcp 1540 ------- 0 0.0 1.0 17 32
+ 0.367552 1 0 ack 40 ------- 0 1.0 0.0 17 47
- 0.367552 1 0 ack 40 ------- 0 1.0 0.0 17 47
0.368 15
r 0.368784 0 1 tcp 1540 ------- 0 0.0 1.0 18 33
+ 0.368784 1 0 ack 40 ------- 0 1.0 0.0 18 48
- 0.368784 1 0 ack 40 ------- 0 1.0 0.0 18 48
0.369 15
0.370 15
r 0.370016 0 1 tcp 1540 ------- 0 0.0 1.0 19 34
+ 0.370016 1 0 ack 40 ------- 0 1.0 0.0 19 49
- 0.370016 1 0 ack 40 ------- 0 1.0 0.0 19 49
0.371 15
r 0.371248 0 1 tcp 1540 ------- 0 0.0 1.0 20 35
+ 0.371248 1 0 ack 40 ------- 0 1.0 0.0 20 50
- 0.371248 1 0 ack 40 ------- 0 1.0 0.0 20 50
0.372 15
r 0.37248 0 1 tcp 1540 ------- 0 0.0 1.0 21 36
+ 0.37248 1 0 ack 40 ------- 0 1.0 0.0 21 51
- 0.37248 1 0 ack 40 ------- 0 1.0 0.0 21 51
0.373 15
r 0.373712 0 1 tcp 1540 ------- 0 0.0 1.0 22 37
+ 0.373712 1 0 ack 40 ------- 0 1.0 0.0 22 52
- 0.373712 1 0 ack 40 ------- 0 1.0 0.0 22 52
0.374 15
r 0.374944 0 1 tcp 1540 ------- 0 0.0 1.0 23 38
+ 0.374944 1 0 ack 40 ------- 0 1.0 0.0 23 53
- 0.374944 1 0 ack 40 ------- 0 1.0 0.0 23 53
0.375 15
0.376 15
r 0.376176 0 1 tcp 1540 ------- 0 0.0 1.0 24 39
+ 0.376176 1 0 ack 40 ------- 0 1.0 0.0 24 54
- 0.376176 1 0 ack 40 ------- 0 1.0 0.0 24 54
0.377 15
r 0.377408 0 1 tcp 1540 ------- 0 0.0 1.0 25 40
+ 0.377408 1 0 ack 40 ------- 0 1.0 0.0 25 55
- 0.377408 1 0 ack 40 ------- 0 1.0 0.0 25 55
0.378 15
r 0.37864 0 1 tcp 1540 ------- 0 0.0 1.0 26 41
+ 0.37864 1 0 ack 40 ------- 0 1.0 0.0 26 56
- 0.37864 1 0 ack 40 ------- 0 1.0 0.0 26 56
0.379 15
r 0.379872 0 1 tcp 1540 ------- 0 0.0 1.0 27 42
+ 0.379872 1 0 ack 40 ------- 0 1.0 0.0 27 57
- 0.379872 1 0 ack 40 ------- 0 1.0 0.0 27 57
0.380 15
0.381 15
r 0.381104 0 1 tcp 1540 ------- 0 0.0 1.0 28 43
+ 0.381104 1 0 ack 40 ------- 0 1.0 0.0 28 58
- 0.381104 1 0 ack 40 ------- 0 1.0 0.0 28 58
0.382 15
r 0.382336 0 1 tcp 1540 ------- 0 0.0 1.0 29 44
+ 0.382336 1 0 ack 40 ------- 0 1.0 0.0 29 59
- 0.382336 1 0 ack 40 ------- 0 1.0 0.0 29 59
0.383 15
0.384 15
0.385 15
0.386 15
0.387 15
0.388 15
0.389 15
0.390 15
0.391 15
0.392 15
0.393 15
0.394 15
0.395 15
0.396 15
0.397 15
0.398 15
0.399 15
0.400 15
0.401 15
0.402 15
0.403 15
0.404 15
0.405 15
r 0.40512 1 0 ack 40 ------- 0 1.0 0.0 15 45
+ 0.40512 0 1 tcp 1540 ------- 0 0.0 1.0 30 60
- 0.40512 0 1 tcp 1540 ------- 0 0.0 1.0 30 60
0.406 15
r 0.406352 1 0 ack 40 ------- 0 1.0 0.0 16 46
+ 0.406352 0 1 tcp 1540 ------- 0 0.0 1.0 31 61
- 0.406352 0 1 tcp 1540 ------- 0 0.0 1.0 31 61
0.407 15
r 0.407584 1 0 ack 40 ------- 0 1.0 0.0 17 47
+ 0.407584 0 1 tcp 1540 ------- 0 0.0 1.0 32 62
- 0.407584 0 1 tcp 1540 ------- 0 0.0 1.0 32 62
0.408 15
r 0.408816 1 0 ack 40 ------- 0 1.0 0.0 18 48
+ 0.408816 0 1 tcp 1540 ------- 0 0.0 1.0 33 63
- 0.408816 0 1 tcp 1540 ------- 0 0.0 1.0 33 63
0.409 15
0.410 15
r 0.410048 1 0 ack 40 ------- 0 1.0 0.0 19 49
+ 0.410048 0 1 tcp 1540 ------- 0 0.0 1.0 34 64
- 0.410048 0 1 tcp 1540 ------- 0 0.0 1.0 34 64
0.411 15
r 0.41128 1 0 ack 40 ------- 0 1.0 0.0 20 50
+ 0.41128 0 1 tcp 1540 ------- 0 0.0 1.0 35 65
- 0.41128 0 1 tcp 1540 ------- 0 0.0 1.0 35 65
0.412 15
r 0.412512 1 0 ack 40 ------- 0 1.0 0.0 21 51
+ 0.412512 0 1 tcp 1540 ------- 0 0.0 1.0 36 66
- 0.412512 0 1 tcp 1540 ------- 0 0.0 1.0 36 66
0.413 15
r 0.413744 1 0 ack 40 ------- 0 1.0 0.0 22 52
+ 0.413744 0 1 tcp 1540 ------- 0 0.0 1.0 37 67
- 0.413744 0 1 tcp 1540 ------- 0 0.0 1.0 37 67
0.414 15
r 0.414976 1 0 ack 40 ------- 0 1.0 0.0 23 53
+ 0.414976 0 1 tcp 1540 ------- 0 0.0 1.0 38 68
- 0.414976 0 1 tcp 1540 ------- 0 0.0 1.0 38 68
0.415 15
0.416 15
r 0.416208 1 0 ack 40 ------- 0 1.0 0.0 24 54
+ 0.416208 0 1 tcp 1540 ------- 0 0.0 1.0 39 69
- 0.416208 0 1 tcp 1540 ------- 0 0.0 1.0 39 69
0.417 15
r 0.41744 1 0 ack 40 ------- 0 1.0 0.0 25 55
+ 0.41744 0 1 tcp 1540 ------- 0 0.0 1.0 40 70
- 0.41744 0 1 tcp 1540 ------- 0 0.0 1.0 40 70
0.418 15
r 0.418672 1 0 ack 40 ------- 0 1.0 0.0 26 56
+ 0.418672 0 1 tcp 1540 ------- 0 0.0 1.0 41 71
- 0.418672 0 1 tcp 1540 ------- 0 0.0 1.0 41 71
0.419 15
r 0.419904 1 0 ack 40 ------- 0 1.0 0.0 27 57
+ 0.419904 0 1 tcp 1540 ------- 0 0.0 1.0 42 72
- 0.419904 0 1 tcp 1540 ------- 0 0.0 1.0 42 72
0.420 15
0.421 15
r 0.421136 1 0 ack 40 ------- 0 1.0 0.0 28 58
+ 0.421136 0 1 tcp 1540 ------- 0 0.0 1.0 43 73
- 0.421136 0 1 tcp 1540 ------- 0 0.0 1.0 43 73
0.422 15
r 0.422368 1 0 ack 40 ------- 0 1.0 0.0 29 59
+ 0.422368 0 1 tcp 1540 ------- 0 0.0 1.0 44 74
- 0.422368 0 1 tcp 1540 ------- 0 0.0 1.0 44 74
0.423 15
0.424 15
0.425 15
0.426 15
0.427 15
0.428 15
0.429 15
0.430 15
0.431 15
0.432 15
0.433 15
0.434 15
0.435 15
0.436 15
0.437 15
0.438 15
0.439 15
0.440 15
0.441 15
0.442 15
0.443 15
0.444 15
0.445 15
0.446 15
r 0.446352 0 1 tcp 1540 ------- 0 0.0 1.0 30 60
+ 0.446352 1 0 ack 40 ------- 0 1.0 0.0 30 75
- 0.446352 1 0 ack 40 ------- 0 1.0 0.0 30 75
0.447 15
r 0.447584 0 1 tcp 1540 ------- 0 0.0 1.0 31 61
+ 0.447584 1 0 ack 40 ------- 0 1.0 0.0 31 76
- 0.447584 1 0 ack 40 ------- 0 1.0 0.0 31 76
0.448 15
r 0.448816 0 1 tcp 1540 ------- 0 0.0 1.0 32 62
+ 0.448816 1 0 ack 40 ------- 0 1.0 0.0 32 77
- 0.448816 1 0 ack 40 ------- 0 1.0 0.0 32 77
0.449 15
0.450 15
r 0.450048 0 1 tcp 1540 ------- 0 0.0 1.0 33 63
+ 0.450048 1 0 ack 40 ------- 0 1.0 0.0 33 78
- 0.450048 1 0 ack 40 ------- 0 1.0 0.0 33 78
0.451 15
r 0.45128 0 1 tcp 1540 ------- 0 0.0 1.0 34 64
+ 0.45128 1 0 ack 40 ------- 0 1.0 0.0 34 79
- 0.45128 1 0 ack 40 ------- 0 1.0 0.0 34 79
0.452 15
r 0.452512 0 1 tcp 1540 ------- 0 0.0 1.0 35 65
+ 0.452512 1 0 ack 40 ------- 0 1.0 0.0 35 80
- 0.452512 1 0 ack 40 ------- 0 1.0 0.0 35 80
0.453 15
r 0.453744 0 1 tcp 1540 ------- 0 0.0 1.0 36 66
+ 0.453744 1 0 ack 40 ------- 0 1.0 0.0 36 81
- 0.453744 1 0 ack 40 ------- 0 1.0 0.0 36 81
0.454 15
r 0.454976 0 1 tcp 1540 ------- 0 0.0 1.0 37 67
+ 0.454976 1 0 ack 40 ------- 0 1.0 0.0 37 82
- 0.454976 1 0 ack 40 ------- 0 1.0 0.0 37 82
0.455 15
0.456 15
r 0.456208 0 1 tcp 1540 ------- 0 0.0 1.0 38 68
+ 0.456208 1 0 ack 40 ------- 0 1.0 0.0 38 83
- 0.456208 1 0 ack 40 ------- 0 1.0 0.0 38 83
0.457 15
r 0.45744 0 1 tcp 1540 ------- 0 0.0 1.0 39 69
+ 0.45744 1 0 ack 40 ------- 0 1.0 0.0 39 84
- 0.45744 1 0 ack 40 ------- 0 1.0 0.0 39 84
0.458 15
r 0.458672 0 1 tcp 1540 ------- 0 0.0 1.0 40 70
+ 0.458672 1 0 ack 40 ------- 0 1.0 0.0 40 85
- 0.458672 1 0 ack 40 ------- 0 1.0 0.0 40 85
0.459 15
r 0.459904 0 1 tcp 1540 ------- 0 0.0 1.0 41 71
+ 0.459904 1 0 ack 40 ------- 0 1.0 0.0 41 86
- 0.459904 1 0 ack 40 ------- 0 1.0 0.0 41 86
0.460 15
0.461 15
r 0.461136 0 1 tcp 1540 ------- 0 0.0 1.0 42 72
+ 0.461136 1 0 ack 40 ------- 0 1.0 0.0 42 87
- 0.461136 1 0 ack 40 ------- 0 1.0 0.0 42 87
0.462 15
r 0.462368 0 1 tcp 1540 ------- 0 0.0 1.0 43 73
+ 0.462368 1 0 ack 40 ------- 0 1.0 0.0 43 88
- 0.462368 1 0 ack 40 ------- 0 1.0 0.0 43 88
0.463 15
r 0.4636 0 1 tcp 1540 ------- 0 0.0 1.0 44 74
+ 0.4636 1 0 ack 40 ------- 0 1.0 0.0 44 89
- 0.4636 1 0 ack 40 ------- 0 1.0 0.0 44 89
0.464 15
0.465 15
0.466 15
0.467 15
0.468 15
0.469 15
0.470 15
0.471 15
0.472 15
0.473 15
0.474 15
0.475 15
0.476 15
0.477 15
0.478 15
0.479 15
0.480 15
0.481 15
0.482 15
0.483 15
0.484 15
0.485 15
0.486 15
r 0.486384 1 0 ack 40 ------- 0 1.0 0.0 30 75
+ 0.486384 0 1 tcp 1540 ------- 0 0.0 1.0 45 90
- 0.486384 0 1 tcp 1540 ------- 0 0.0 1.0 45 90
0.487 15
r 0.487616 1 0 ack 40 ------- 0 1.0 0.0 31 76
+ 0.487616 0 1 tcp 1540 ------- 0 0.0 1.0 46 91
- 0.487616 0 1 tcp 1540 ------- 0 0.0 1.0 46 91
0.488 15
r 0.488848 1 0 ack 40 ------- 0 1.0 0.0 32 77
+ 0.488848 0 1 tcp 1540 ------- 0 0.0 1.0 47 92
- 0.488848 0 1 tcp 1540 ------- 0 0.0 1.0 47 92
0.489 15
0.490 15
r 0.49008 1 0 ack 40 ------- 0 1.0 0.0 33 78
+ 0.49008 0 1 tcp 1540 ------- 0 0.0 1.0 48 93
- 0.49008 0 1 tcp 1540 ------- 0 0.0 1.0 48 93
0.491 15
r 0.491312 1 0 ack 40 ------- 0 1.0 0.0 34 79
+ 0.491312 0 1 tcp 1540 ------- 0 0.0 1.0 49 94
- 0.491312 0 1 tcp 1540 ------- 0 0.0 1.0 49 94
0.492 15
r 0.492544 1 0 ack 40 ------- 0 1.0 0.0 35 80
+ 0.492544 0 1 tcp 1540 ------- 0 0.0 1.0 50 95
- 0.492544 0 1 tcp 1540 ------- 0 0.0 1.0 50 95
0.493 15
r 0.493776 1 0 ack 40 ------- 0 1.0 0.0 36 81
+ 0.493776 0 1 tcp 1540 ------- 0 0.0 1.0 51 96
- 0.493776 0 1 tcp 1540 ------- 0 0.0 1.0 51 96
0.494 15
0.495 15
r 0.495008 1 0 ack 40 ------- 0 1.0 0.0 37 82
+ 0.495008 0 1 tcp 1540 ------- 0 0.0 1.0 52 97
- 0.495008 0 1 tcp 1540 ------- 0 0.0 1.0 52 97
0.496 15
r 0.49624 1 0 ack 40 ------- 0 1.0 0.0 38 83
+ 0.49624 0 1 tcp 1540 ------- 0 0.0 1.0 53 98
- 0.49624 0 1 tcp 1540 ------- 0 0.0 1.0 53 98
0.497 15
r 0.497472 1 0 ack 40 ------- 0 1.0 0.0 39 84
+ 0.497472 0 1 tcp 1540 ------- 0 0.0 1.0 54 99
- 0.497472 0 1 tcp 1540 ------- 0 0.0 1.0 54 99
0.498 15
r 0.498704 1 0 ack 40 ------- 0 1.0 0.0 40 85
+ 0.498704 0 1 tcp 1540 ------- 0 0.0 1.0 55 100
- 0.498704 0 1 tcp 1540 ------- 0 0.0 1.0 55 100
0.499 15
r 0.499936 1 0 ack 40 ------- 0 1.0 0.0 41 86
+ 0.499936 0 1 tcp 1540 ------- 0 0.0 1.0 56 101
- 0.499936 0 1 tcp 1540 ------- 0 0.0 1.0 56 101
0.500 15
0.501 15
r 0.501168 1 0 ack 40 ------- 0 1.0 0.0 42 87
+ 0.501168 0 1 tcp 1540 ------- 0 0.0 1.0 57 102
- 0.501168 0 1 tcp 1540 ------- 0 0.0 1.0 57 102
0.502 15
r 0.5024 1 0 ack 40 ------- 0 1.0 0.0 43 88
+ 0.5024 0 1 tcp 1540 ------- 0 0.0 1.0 58 103
- 0.5024 0 1 tcp 1540 ------- 0 0.0 1.0 58 103
0.503 15
r 0.503632 1 0 ack 40 ------- 0 1.0 0.0 44 89
+ 0.503632 0 1 tcp 1540 ------- 0 0.0 1.0 59 104
- 0.503632 0 1 tcp 1540 ------- 0 0.0 1.0 59 104
0.504 15
0.505 15
0.506 15
0.507 15
0.508 15
0.509 15
0.510 15
0.511 15
0.512 15
0.513 15
0.514 15
0.515 15
0.516 15
0.517 15
0.518 15
0.519 15
0.520 15
0.521 15
0.522 15
0.523 15
0.524 15
0.525 15
0.526 15
0.527 15
r 0.527616 0 1 tcp 1540 ------- 0 0.0 1.0 45 90
+ 0.527616 1 0 ack 40 ------- 0 1.0 0.0 45 105
- 0.527616 1 0 ack 40 ------- 0 1.0 0.0 45 105
0.528 15
r 0.528848 0 1 tcp 1540 ------- 0 0.0 1.0 46 91
+ 0.528848 1 0 ack 40 ------- 0 1.0 0.0 46 106
- 0.528848 1 0 ack 40 ------- 0 1.0 0.0 46 106
0.529 15
0.530 15
r 0.53008 0 1 tcp 1540 ------- 0 0.0 1.0 47 92
+ 0.53008 1 0 ack 40 ------- 0 1.0 0.0 47 107
- 0.53008 1 0 ack 40 ------- 0 1.0 0.0 47 107
0.531 15
r 0.531312 0 1 tcp 1540 ------- 0 0.0 1.0 48 93
+ 0.531312 1 0 ack 40 ------- 0 1.0 0.0 48 108
- 0.531312 1 0 ack 40 ------- 0 1.0 0.0 48 108
0.532 15
r 0.532544 0 1 tcp 1540 ------- 0 0.0 1.0 49 94
+ 0.532544 1 0 ack 40 ------- 0 1.0 0.0 49 109
- 0.532544 1 0 ack 40 ------- 0 1.0 0.0 49 109
0.533 15
r 0.533776 0 1 tcp 1540 ------- 0 0.0 1.0 50 95
+ 0.533776 1 0 ack 40 ------- 0 1.0 0.0 50 110
- 0.533776 1 0 ack 40 ------- 0 1.0 0.0 50 110
0.534 15
0.535 15
r 0.535008 0 1 tcp 1540 ------- 0 0.0 1.0 51 96
+ 0.535008 1 0 ack 40 ------- 0 1.0 0.0 51 111
- 0.535008 1 0 ack 40 ------- 0 1.0 0.0 51 111
0.536 15
r 0.53624 0 1 tcp 1540 ------- 0 0.0 1.0 52 97
+ 0.53624 1 0 ack 40 ------- 0 1.0 0.0 52 112
- 0.53624 1 0 ack 40 ------- 0 1.0 0.0 52 112
0.537 15
r 0.537472 0 1 tcp 1540 ------- 0 0.0 1.0 53 98
+ 0.537472 1 0 ack 40 ------- 0 1.0 0.0 53 113
- 0.537472 1 0 ack 40 ------- 0 1.0 0.0 53 113
0.538 15
r 0.538704 0 1 tcp 1540 ------- 0 0.0 1.0 54 99
+ 0.538704 1 0 ack 40 ------- 0 1.0 0.0 54 114
- 0.538704 1 0 ack 40 ------- 0 1.0 0.0 54 114
0.539 15
r 0.539936 0 1 tcp 1540 ------- 0 0.0 1.0 55 100
+ 0.539936 1 0 ack 40 ------- 0 1.0 0.0 55 115
- 0.539936 1 0 ack 40 ------- 0 1.0 0.0 55 115
0.540 15
0.541 15
r 0.541168 0 1 tcp 1540 ------- 0 0.0 1.0 56 101
+ 0.541168 1 0 ack 40 ------- 0 1.0 0.0 56 116
- 0.541168 1 0 ack 40 ------- 0 1.0 0.0 56 116
0.542 15
r 0.5424 0 1 tcp 1540 ------- 0 0.0 1.0 57 102
+ 0.5424 1 0 ack 40 ------- 0 1.0 0.0 57 117
- 0.5424 1 0 ack 40 ------- 0 1.0 0.0 57 117
0.543 15
r 0.543632 0 1 tcp 1540 ------- 0 0.0 1.0 58 103
+ 0.543632 1 0 ack 40 ------- 0 1.0 0.0 58 118
- 0.543632 1 0 ack 40 ------- 0 1.0 0.0 58 118
0.544 15
r 0.544864 0 1 tcp 1540 ------- 0 0.0 1.0 59 104
+ 0.544864 1 0 ack 40 ------- 0 1.0 0.0 59 119
- 0.544864 1 0 ack 40 ------- 0 1.0 0.0 59 119
0.545 15
0.546 15
0.547 15
0.548 15
0.549 15
0.550 15
0.551 15
0.552 15
0.553 15
0.554 15
0.555 15
0.556 15
0.557 15
0.558 15
0.559 15
0.560 15
0.561 15
0.562 15
0.563 15
0.564 15
0.565 15
0.566 15
0.567 15
r 0.567648 1 0 ack 40 ------- 0 1.0 0.0 45 105
+ 0.567648 0 1 tcp 1540 ------- 0 0.0 1.0 60 120
- 0.567648 0 1 tcp 1540 ------- 0 0.0 1.0 60 120
0.568 15
r 0.56888 1 0 ack 40 ------- 0 1.0 0.0 46 106
+ 0.56888 0 1 tcp 1540 ------- 0 0.0 1.0 61 121
- 0.56888 0 1 tcp 1540 ------- 0 0.0 1.0 61 121
0.569 15
0.570 15
r 0.570112 1 0 ack 40 ------- 0 1.0 0.0 47 107
+ 0.570112 0 1 tcp 1540 ------- 0 0.0 1.0 62 122
- 0.570112 0 1 tcp 1540 ------- 0 0.0 1.0 62 122
0.571 15
r 0.571344 1 0 ack 40 ------- 0 1.0 0.0 48 108
+ 0.571344 0 1 tcp 1540 ------- 0 0.0 1.0 63 123
- 0.571344 0 1 tcp 1540 ------- 0 0.0 1.0 63 123
0.572 15
r 0.572576 1 0 ack 40 ------- 0 1.0 0.0 49 109
+ 0.572576 0 1 tcp 1540 ------- 0 0.0 1.0 64 124
- 0.572576 0 1 tcp 1540 ------- 0 0.0 1.0 64 124
0.573 15
r 0.573808 1 0 ack 40 ------- 0 1.0 0.0 50 110
+ 0.573808 0 1 tcp 1540 ------- 0 0.0 1.0 65 125
- 0.573808 0 1 tcp 1540 ------- 0 0.0 1.0 65 125
0.574 15
0.575 15
r 0.57504 1 0 ack 40 ------- 0 1.0 0.0 51 111
+ 0.57504 0 1 tcp 1540 ------- 0 0.0 1.0 66 126
- 0.57504 0 1 tcp 1540 ------- 0 0.0 1.0 66 126
0.576 15
r 0.576272 1 0 ack 40 ------- 0 1.0 0.0 52 112
+ 0.576272 0 1 tcp 1540 ------- 0 0.0 1.0 67 127
- 0.576272 0 1 tcp 1540 ------- 0 0.0 1.0 67 127
0.577 15
r 0.577504 1 0 ack 40 ------- 0 1.0 0.0 53 113
+ 0.577504 0 1 tcp 1540 ------- 0 0.0 1.0 68 128
- 0.577504 0 1 tcp 1540 ------- 0 0.0 1.0 68 128
0.578 15
r 0.578736 1 0 ack 40 ------- 0 1.0 0.0 54 114
+ 0.578736 0 1 tcp 1540 ------- 0 0.0 1.0 69 129
- 0.578736 0 1 tcp 1540 ------- 0 0.0 1.0 69 129
0.579 15
r 0.579968 1 0 ack 40 ------- 0 1.0 0.0 55 115
+ 0.579968 0 1 tcp 1540 ------- 0 0.0 1.0 70 130
- 0.579968 0 1 tcp 1540 ------- 0 0.0 1.0 70 130
0.580 15
0.581 15
r 0.5812 1 0 ack 40 ------- 0 1.0 0.0 56 116
+ 0.5812 0 1 tcp 1540 ------- 0 0.0 1.0 71 131
- 0.5812 0 1 tcp 1540 ------- 0 0.0 1.0 71 131
0.582 15
r 0.582432 1 0 ack 40 ------- 0 1.0 0.0 57 117
+ 0.582432 0 1 tcp 1540 ------- 0 0.0 1.0 72 132
- 0.582432 0 1 tcp 1540 ------- 0 0.0 1.0 72 132
0.583 15
r 0.583664 1 0 ack 40 ------- 0 1.0 0.0 58 118
+ 0.583664 0 1 tcp 1540 ------- 0 0.0 1.0 73 133
- 0.583664 0 1 tcp 1540 ------- 0 0.0 1.0 73 133
0.584 15
r 0.584896 1 0 ack 40 ------- 0 1.0 0.0 59 119
+ 0.584896 0 1 tcp 1540 ------- 0 0.0 1.0 74 134
- 0.584896 0 1 tcp 1540 ------- 0 0.0 1.0 74 134
0.585 15
0.586 15
0.587 15
0.588 15
0.589 15
0.590 15
0.591 15
0.592 15
0.593 15
0.594 15
0.595 15
0.596 15
0.597 15
0.598 15
0.599 15
0.600 15
0.601 15
0.602 15
0.603 15
0.604 15
0.605 15
0.606 15
0.607 15
0.608 15
r 0.60888 0 1 tcp 1540 ------- 0 0.0 1.0 60 120
+ 0.60888 1 0 ack 40 ------- 0 1.0 0.0 60 135
- 0.60888 1 0 ack 40 ------- 0 1.0 0.0 60 135
0.609 15
0.610 15
r 0.610112 0 1 tcp 1540 ------- 0 0.0 1.0 61 121
+ 0.610112 1 0 ack 40 ------- 0 1.0 0.0 61 136
- 0.610112 1 0 ack 40 ------- 0 1.0 0.0 61 136
0.611 15
r 0.611344 0 1 tcp 1540 ------- 0 0.0 1.0 62 122
+ 0.611344 1 0 ack 40 ------- 0 1.0 0.0 62 137
- 0.611344 1 0 ack 40 ------- 0 1.0 0.0 62 137
0.612 15
r 0.612576 0 1 tcp 1540 ------- 0 0.0 1.0 63 123
+ 0.612576 1 0 ack 40 ------- 0 1.0 0.0 63 138
- 0.612576 1 0 ack 40 ------- 0 1.0 0.0 63 138
0.613 15
r 0.613808 0 1 tcp 1540 ------- 0 0.0 1.0 64 124
+ 0.613808 1 0 ack 40 ------- 0 1.0 0.0 64 139
- 0.613808 1 0 ack 40 ------- 0 1.0 0.0 64 139
0.614 15
0.615 15
r 0.61504 0 1 tcp 1540 ------- 0 0.0 1.0 65 125
+ 0.61504 1 0 ack 40 ------- 0 1.0 0.0 65 140
- 0.61504 1 0 ack 40 ------- 0 1.0 0.0 65 140
0.616 15
r 0.616272 0 1 tcp 1540 ------- 0 0.0 1.0 66 126
+ 0.616272 1 0 ack 40 ------- 0 1.0 0.0 66 141
- 0.616272 1 0 ack 40 ------- 0 1.0 0.0 66 141
0.617 15
r 0.617504 0 1 tcp 1540 ------- 0 0.0 1.0 67 127
+ 0.617504 1 0 ack 40 ------- 0 1.0 0.0 67 142
- 0.617504 1 0 ack 40 ------- 0 1.0 0.0 67 142
0.618 15
r 0.618736 0 1 tcp 1540 ------- 0 0.0 1.0 68 128
+ 0.618736 1 0 ack 40 ------- 0 1.0 0.0 68 143
- 0.618736 1 0 ack 40 ------- 0 1.0 0.0 68 143
0.619 15
r 0.619968 0 1 tcp 1540 ------- 0 0.0 1.0 69 129
+ 0.619968 1 0 ack 40 ------- 0 1.0 0.0 69 144
- 0.619968 1 0 ack 40 ------- 0 1.0 0.0 69 144
0.620 15
0.621 15
r 0.6212 0 1 tcp 1540 ------- 0 0.0 1.0 70 130
+ 0.6212 1 0 ack 40 ------- 0 1.0 0.0 70 145
- 0.6212 1 0 ack 40 ------- 0 1.0 0.0 70 145
0.622 15
r 0.622432 0 1 tcp 1540 ------- 0 0.0 1.0 71 131
+ 0.622432 1 0 ack 40 ------- 0 1.0 0.0 71 146
- 0.622432 1 0 ack 40 ------- 0 1.0 0.0 71 146
0.623 15
r 0.623664 0 1 tcp 1540 ------- 0 0.0 1.0 72 132
+ 0.623664 1 0 ack 40 ------- 0 1.0 0.0 72 147
- 0.623664 1 0 ack 40 ------- 0 1.0 0.0 72 147
0.624 15
r 0.624896 0 1 tcp 1540 ------- 0 0.0 1.0 73 133
+ 0.624896 1 0 ack 40 ------- 0 1.0 0.0 73 148
- 0.624896 1 0 ack 40 ------- 0 1.0 0.0 73 148
0.625 15
0.626 15
r 0.626128 0 1 tcp 1540 ------- 0 0.0 1.0 74 134
+ 0.626128 1 0 ack 40 ------- 0 1.0 0.0 74 149
- 0.626128 1 0 ack 40 ------- 0 1.0 0.0 74 149
0.627 15
0.628 15
0.629 15
0.630 15
0.631 15
0.632 15
0.633 15
0.634 15
0.635 15
0.636 15
0.637 15
0.638 15
0.639 15
0.640 15
0.641 15
0.642 15
0.643 15
0.644 15
0.645 15
0.646 15
0.647 15
0.648 15
r 0.648912 1 0 ack 40 ------- 0 1.0 0.0 60 135
+ 0.648912 0 1 tcp 1540 ------- 0 0.0 1.0 75 150
- 0.648912 0 1 tcp 1540 ------- 0 0.0 1.0 75 150
0.649 15
0.650 15
r 0.650144 1 0 ack 40 ------- 0 1.0 0.0 61 136
+ 0.650144 0 1 tcp 1540 ------- 0 0.0 1.0 76 151
- 0.650144 0 1 tcp 1540 ------- 0 0.0 1.0 76 151
0.651 15
r 0.651376 1 0 ack 40 ------- 0 1.0 0.0 62 137
+ 0.651376 0 1 tcp 1540 ------- 0 0.0 1.0 77 152
- 0.651376 0 1 tcp 1540 ------- 0 0.0 1.0 77 152
0.652 15
r 0.652608 1 0 ack 40 ------- 0 1.0 0.0 63 138
+ 0.652608 0 1 tcp 1540 ------- 0 0.0 1.0 78 153
- 0.652608 0 1 tcp 1540 ------- 0 0.0 1.0 78 153
0.653 15
r 0.65384 1 0 ack 40 ------- 0 1.0 0.0 64 139
+ 0.65384 0 1 tcp 1540 ------- 0 0.0 1.0 79 154
- 0.65384 0 1 tcp 1540 ------- 0 0.0 1.0 79 154
0.654 15
0.655 15
r 0.655072 1 0 ack 40 ------- 0 1.0 0.0 65 140
+ 0.655072 0 1 tcp 1540 ------- 0 0.0 1.0 80 155
- 0.655072 0 1 tcp 1540 ------- 0 0.0 1.0 80 155
0.656 15
r 0.656304 1 0 ack 40 ------- 0 1.0 0.0 66 141
+ 0.656304 0 1 tcp 1540 ------- 0 0.0 1.0 81 156
- 0.656304 0 1 tcp 1540 ------- 0 0.0 1.0 81 156
0.657 15
r 0.657536 1 0 ack 40 ------- 0 1.0 0.0 67 142
+ 0.657536 0 1 tcp 1540 ------- 0 0.0 1.0 82 157
- 0.657536 0 1 tcp 1540 ------- 0 0.0 1.0 82 157
0.658 15
r 0.658768 1 0 ack 40 ------- 0 1.0 0.0 68 143
+ 0.658768 0 1 tcp 1540 ------- 0 0.0 1.0 83 158
- 0.658768 0 1 tcp 1540 ------- 0 0.0 1.0 83 158
0.659 15
r 0.66 1 0 ack 40 ------- 0 1.0 0.0 69 144
+ 0.66 0 1 tcp 1540 ------- 0 0.0 1.0 84 159
- 0.66 0 1 tcp 1540 ------- 0 0.0 1.0 84 159
0.660 15
0.661 15
r 0.661232 1 0 ack 40 ------- 0 1.0 0.0 70 145
+ 0.661232 0 1 tcp 1540 ------- 0 0.0 1.0 85 160
- 0.661232 0 1 tcp 1540 ------- 0 0.0 1.0 85 160
0.662 15
r 0.662464 1 0 ack 40 ------- 0 1.0 0.0 71 146
+ 0.662464 0 1 tcp 1540 ------- 0 0.0 1.0 86 161
- 0.662464 0 1 tcp 1540 ------- 0 0.0 1.0 86 161
0.663 15
r 0.663696 1 0 ack 40 ------- 0 1.0 0.0 72 147
+ 0.663696 0 1 tcp 1540 ------- 0 0.0 1.0 87 162
- 0.663696 0 1 tcp 1540 ------- 0 0.0 1.0 87 162
0.664 15
r 0.664928 1 0 ack 40 ------- 0 1.0 0.0 73 148
+ 0.664928 0 1 tcp 1540 ------- 0 0.0 1.0 88 163
- 0.664928 0 1 tcp 1540 ------- 0 0.0 1.0 88 163
0.665 15
0.666 15
r 0.66616 1 0 ack 40 ------- 0 1.0 0.0 74 149
+ 0.66616 0 1 tcp 1540 ------- 0 0.0 1.0 89 164
- 0.66616 0 1 tcp 1540 ------- 0 0.0 1.0 89 164
0.667 15
0.668 15
0.669 15
0.670 15
0.671 15
0.672 15
0.673 15
0.674 15
0.675 15
0.676 15
0.677 15
0.678 15
0.679 15
0.680 15
0.681 15
0.682 15
0.683 15
0.684 15
0.685 15
0.686 15
0.687 15
0.688 15
0.689 15
0.690 15
r 0.690144 0 1 tcp 1540 ------- 0 0.0 1.0 75 150
+ 0.690144 1 0 ack 40 ------- 0 1.0 0.0 75 165
- 0.690144 1 0 ack 40 ------- 0 1.0 0.0 75 165
0.691 15
r 0.691376 0 1 tcp 1540 ------- 0 0.0 1.0 76 151
+ 0.691376 1 0 ack 40 ------- 0 1.0 0.0 76 166
- 0.691376 1 0 ack 40 ------- 0 1.0 0.0 76 166
0.692 15
r 0.692608 0 1 tcp 1540 ------- 0 0.0 1.0 77 152
+ 0.692608 1 0 ack 40 ------- 0 1.0 0.0 77 167
- 0.692608 1 0 ack 40 ------- 0 1.0 0.0 77 167
0.693 15
r 0.69384 0 1 tcp 1540 ------- 0 0.0 1.0 78 153
+ 0.69384 1 0 ack 40 ------- 0 1.0 0.0 78 168
- 0.69384 1 0 ack 40 ------- 0 1.0 0.0 78 168
0.694 15
0.695 15
r 0.695072 0 1 tcp 1540 ------- 0 0.0 1.0 79 154
+ 0.695072 1 0 ack 40 ------- 0 1.0 0.0 79 169
- 0.695072 1 0 ack 40 ------- 0 1.0 0.0 79 169
0.696 15
r 0.696304 0 1 tcp 1540 ------- 0 0.0 1.0 80 155
+ 0.696304 1 0 ack 40 ------- 0 1.0 0.0 80 170
- 0.696304 1 0 ack 40 ------- 0 1.0 0.0 80 170
0.697 15
r 0.697536 0 1 tcp 1540 ------- 0 0.0 1.0 81 156
+ 0.697536 1 0 ack 40 ------- 0 1.0 0.0 81 171
- 0.697536 1 0 ack 40 ------- 0 1.0 0.0 81 171
0.698 15
r 0.698768 0 1 tcp 1540 ------- 0 0.0 1.0 82 157
+ 0.698768 1 0 ack 40 ------- 0 1.0 0.0 82 172
- 0.698768 1 0 ack 40 ------- 0 1.0 0.0 82 172
0.699 15
0.700 15
r 0.7 0 1 tcp 1540 ------- 0 0.0 1.0 83 158
+ 0.7 1 0 ack 40 ------- 0 1.0 0.0 83 173
- 0.7 1 0 ack 40 ------- 0 1.0 0.0 83 173
0.701 15
r 0.701232 0 1 tcp 1540 ------- 0 0.0 1.0 84 159
+ 0.701232 1 0 ack 40 ------- 0 1.0 0.0 84 174
- 0.701232 1 0 ack 40 ------- 0 1.0 0.0 84 174
0.702 15