+ 0 0 1 tcp 40 ------- 0 0.0 1.0 0 0
- 0 0 1 tcp 40 ------- 0 0.0 1.0 0 0
0.000 1
0.001 1
0.002 1
0.003 1
0.004 1
0.005 1
0.006 1
0.007 1
0.008 1
0.009 1
0.010 1
0.011 1
0.012 1
0.013 1
0.014 1
0.015 1
0.016 1
0.017 1
0.018 1
0.019 1
0.020 1
0.021 1
0.022 1
0.023 1
0.024 1
0.025 1
0.026 1
0.027 1
0.028 1
0.029 1
0.030 1
0.031 1
0.032 1
0.033 1
0.034 1
0.035 1
0.036 1
0.037 1
0.038 1
0.039 1
0.040 1
r 0.040064 0 1 tcp 40 ------- 0 0.0 1.0 0 0
+ 0.040064 1 0 ack 40 ------- 0 1.0 0.0 0 1
- 0.040064 1 0 ack 40 ------- 0 1.0 0.0 0 1
0.041 1
0.042 1
0.043 1
0.044 1
0.045 1
0.046 1
0.047 1
0.048 1
0.049 1
0.050 1
0.051 1
0.052 1
0.053 1
0.054 1
0.055 1
0.056 1
0.057 1
0.058 1
0.059 1
0.060 1
0.061 1
0.062 1
0.063 1
0.064 1
0.065 1
0.066 1
0.067 1
0.068 1
0.069 1
0.070 1
0.071 1
0.072 1
0.073 1
0.074 1
0.075 1
0.076 1
0.077 1
0.078 1
0.079 1
0.080 1
r 0.080128 1 0 ack 40 ------- 0 1.0 0.0 0 1
+ 0.080128 0 1 tcp 1540 ------- 0 0.0 1.0 1 2
- 0.080128 0 1 tcp 1540 ------- 0 0.0 1.0 1 2
+ 0.080128 0 1 tcp 1540 ------- 0 0.0 1.0 2 3
0.081 2
0.082 2
- 0.082592 0 1 tcp 1540 ------- 0 0.0 1.0 2 3
0.083 2
0.084 2
0.085 2
0.086 2
0.087 2
0.088 2
0.089 2
0.090 2
0.091 2
0.092 2
0.093 2
0.094 2
0.095 2
0.096 2
0.097 2
0.098 2
0.099 2
0.100 2
0.101 2
0.102 2
0.103 2
0.104 2
0.105 2
0.106 2
0.107 2
0.108 2
0.109 2
0.110 2
0.111 2
0.112 2
0.113 2
0.114 2
0.115 2
0.116 2
0.117 2
0.118 2
0.119 2
0.120 2
0.121 2
0.122 2
r 0.122592 0 1 tcp 1540 ------- 0 0.0 1.0 1 2
+ 0.122592 1 0 ack 40 ------- 0 1.0 0.0 1 4
- 0.122592 1 0 ack 40 ------- 0 1.0 0.0 1 4
0.123 2
0.124 2
0.125 2
r 0.125056 0 1 tcp 1540 ------- 0 0.0 1.0 2 3
+ 0.125056 1 0 ack 40 ------- 0 1.0 0.0 2 5
- 0.125056 1 0 ack 40 ------- 0 1.0 0.0 2 5
0.126 2
0.127 2
0.128 2
0.129 2
0.130 2
0.131 2
0.132 2
0.133 2
0.134 2
0.135 2
0.136 2
0.137 2
0.138 2
0.139 2
0.140 2
0.141 2
0.142 2
0.143 2
0.144 2
0.145 2
0.146 2
0.147 2
0.148 2
0.149 2
0.150 2
0.151 2
0.152 2
0.153 2
0.154 2
0.155 2
0.156 2
0.157 2
0.158 2
0.159 2
0.160 2
0.161 2
0.162 2
r 0.162656 1 0 ack 40 ------- 0 1.0 0.0 1 4
+ 0.162656 0 1 tcp 1540 ------- 0 0.0 1.0 3 6
- 0.162656 0 1 tcp 1540 ------- 0 0.0 1.0 3 6
+ 0.162656 0 1 tcp 1540 ------- 0 0.0 1.0 4 7
0.163 3
0.164 3
0.165 3
r 0.16512 1 0 ack 40 ------- 0 1.0 0.0 2 5
+ 0.16512 0 1 tcp 1540 ------- 0 0.0 1.0 5 8
+ 0.16512 0 1 tcp 1540 ------- 0 0.0 1.0 6 9
- 0.16512 0 1 tcp 1540 ------- 0 0.0 1.0 4 7
0.166 4
0.167 4
- 0.167584 0 1 tcp 1540 ------- 0 0.0 1.0 5 8
0.168 4
0.169 4
0.170 4
- 0.170048 0 1 tcp 1540 ------- 0 0.0 1.0 6 9
0.171 4
0.172 4
0.173 4
0.174 4
0.175 4
0.176 4
0.177 4
0.178 4
0.179 4
0.180 4
0.181 4
0.182 4
0.183 4
0.184 4
0.185 4
0.186 4
0.187 4
0.188 4
0.189 4
0.190 4
0.191 4
0.192 4
0.193 4
0.194 4
0.195 4
0.196 4
0.197 4
0.198 4
0.199 4
0.200 4
0.201 4
0.202 4
0.203 4
0.204 4
0.205 4
r 0.20512 0 1 tcp 1540 ------- 0 0.0 1.0 3 6
+ 0.20512 1 0 ack 40 ------- 0 1.0 0.0 3 10
- 0.20512 1 0 ack 40 ------- 0 1.0 0.0 3 10
0.206 4
0.207 4
r 0.207584 0 1 tcp 1540 ------- 0 0.0 1.0 4 7
+ 0.207584 1 0 ack 40 ------- 0 1.0 0.0 4 11
- 0.207584 1 0 ack 40 ------- 0 1.0 0.0 4 11
0.208 4
0.209 4
0.210 4
r 0.210048 0 1 tcp 1540 ------- 0 0.0 1.0 5 8
+ 0.210048 1 0 ack 40 ------- 0 1.0 0.0 5 12
- 0.210048 1 0 ack 40 ------- 0 1.0 0.0 5 12
0.211 4
0.212 4
r 0.212512 0 1 tcp 1540 ------- 0 0.0 1.0 6 9
+ 0.212512 1 0 ack 40 ------- 0 1.0 0.0 6 13
- 0.212512 1 0 ack 40 ------- 0 1.0 0.0 6 13
0.213 4
0.214 4
0.215 4
0.216 4
0.217 4
0.218 4
0.219 4
0.220 4
0.221 4
0.222 4
0.223 4
0.224 4
0.225 4
0.226 4
0.227 4
0.228 4
0.229 4
0.230 4
0.231 4
0.232 4
0.233 4
0.234 4
0.235 4
0.236 4
0.237 4
0.238 4
0.239 4
0.240 4
0.241 4
0.242 4
0.243 4
0.244 4
0.245 4
r 0.245184 1 0 ack 40 ------- 0 1.0 0.0 3 10
+ 0.245184 0 1 tcp 1540 ------- 0 0.0 1.0 7 14
- 0.245184 0 1 tcp 1540 ------- 0 0.0 1.0 7 14
+ 0.245184 0 1 tcp 1540 ------- 0 0.0 1.0 8 15
0.246 5
0.247 5
- 0.247648 0 1 tcp 1540 ------- 0 0.0 1.0 8 15
r 0.247648 1 0 ack 40 ------- 0 1.0 0.0 4 11
+ 0.247648 0 1 tcp 1540 ------- 0 0.0 1.0 9 16
+ 0.247648 0 1 tcp 1540 ------- 0 0.0 1.0 10 17
0.248 6
0.249 6
0.250 6
r 0.250112 1 0 ack 40 ------- 0 1.0 0.0 5 12
+ 0.250112 0 1 tcp 1540 ------- 0 0.0 1.0 11 18
+ 0.250112 0 1 tcp 1540 ------- 0 0.0 1.0 12 19
- 0.250112 0 1 tcp 1540 ------- 0 0.0 1.0 9 16
0.251 7
0.252 7
r 0.252576 1 0 ack 40 ------- 0 1.0 0.0 6 13
+ 0.252576 0 1 tcp 1540 ------- 0 0.0 1.0 13 20
+ 0.252576 0 1 tcp 1540 ------- 0 0.0 1.0 14 21
- 0.252576 0 1 tcp 1540 ------- 0 0.0 1.0 10 17
0.253 8
0.254 8
0.255 8
- 0.25504 0 1 tcp 1540 ------- 0 0.0 1.0 11 18
0.256 8
0.257 8
- 0.257504 0 1 tcp 1540 ------- 0 0.0 1.0 12 19
0.258 8
0.259 8
- 0.259968 0 1 tcp 1540 ------- 0 0.0 1.0 13 20
0.260 8
0.261 8
0.262 8
- 0.262432 0 1 tcp 1540 ------- 0 0.0 1.0 14 21
0.263 8
0.264 8
0.265 8
0.266 8
0.267 8
0.268 8
0.269 8
0.270 8
0.271 8
0.272 8
0.273 8
0.274 8
0.275 8
0.276 8
0.277 8
0.278 8
0.279 8
0.280 8
0.281 8
0.282 8
0.283 8
0.284 8
0.285 8
0.286 8
0.287 8
r 0.287648 0 1 tcp 1540 ------- 0 0.0 1.0 7 14
+ 0.287648 1 0 ack 40 ------- 0 1.0 0.0 7 22
- 0.287648 1 0 ack 40 ------- 0 1.0 0.0 7 22
0.288 8
0.289 8
0.290 8
r 0.290112 0 1 tcp 1540 ------- 0 0.0 1.0 8 15
+ 0.290112 1 0 ack 40 ------- 0 1.0 0.0 8 23
- 0.290112 1 0 ack 40 ------- 0 1.0 0.0 8 23
0.291 8
0.292 8
r 0.292576 0 1 tcp 1540 ------- 0 0.0 1.0 9 16
+ 0.292576 1 0 ack 40 ------- 0 1.0 0.0 9 24
- 0.292576 1 0 ack 40 ------- 0 1.0 0.0 9 24
0.293 8
0.294 8
0.295 8
r 0.29504 0 1 tcp 1540 ------- 0 0.0 1.0 10 17
+ 0.29504 1 0 ack 40 ------- 0 1.0 0.0 10 25
- 0.29504 1 0 ack 40 ------- 0 1.0 0.0 10 25
0.296 8
0.297 8
r 0.297504 0 1 tcp 1540 ------- 0 0.0 1.0 11 18
+ 0.297504 1 0 ack 40 ------- 0 1.0 0.0 11 26
- 0.297504 1 0 ack 40 ------- 0 1.0 0.0 11 26
0.298 8
0.299 8
r 0.299968 0 1 tcp 1540 ------- 0 0.0 1.0 12 19
+ 0.299968 1 0 ack 40 ------- 0 1.0 0.0 12 27
- 0.299968 1 0 ack 40 ------- 0 1.0 0.0 12 27
0.300 8
0.301 8
0.302 8
r 0.302432 0 1 tcp 1540 ------- 0 0.0 1.0 13 20
+ 0.302432 1 0 ack 40 ------- 0 1.0 0.0 13 28
- 0.302432 1 0 ack 40 ------- 0 1.0 0.0 13 28
0.303 8
0.304 8
r 0.304896 0 1 tcp 1540 ------- 0 0.0 1.0 14 21
+ 0.304896 1 0 ack 40 ------- 0 1.0 0.0 14 29
- 0.304896 1 0 ack 40 ------- 0 1.0 0.0 14 29
0.305 8
0.306 8
0.307 8
0.308 8
0.309 8
0.310 8
0.311 8
0.312 8
0.313 8
0.314 8
0.315 8
0.316 8
0.317 8
0.318 8
0.319 8
0.320 8
0.321 8
0.322 8
0.323 8
0.324 8
0.325 8
0.326 8
0.327 8
r 0.327712 1 0 ack 40 ------- 0 1.0 0.0 7 22
+ 0.327712 0 1 tcp 1540 ------- 0 0.0 1.0 15 30
- 0.327712 0 1 tcp 1540 ------- 0 0.0 1.0 15 30
+ 0.327712 0 1 tcp 1540 ------- 0 0.0 1.0 16 31
0.328 9
0.329 9
0.330 9
r 0.330176 1 0 ack 40 ------- 0 1.0 0.0 8 23
+ 0.330176 0 1 tcp 1540 ------- 0 0.0 1.0 17 32
+ 0.330176 0 1 tcp 1540 ------- 0 0.0 1.0 18 33
- 0.330176 0 1 tcp 1540 ------- 0 0.0 1.0 16 31
0.331 10
0.332 10
r 0.33264 1 0 ack 40 ------- 0 1.0 0.0 9 24
+ 0.33264 0 1 tcp 1540 ------- 0 0.0 1.0 19 34
+ 0.33264 0 1 tcp 1540 ------- 0 0.0 1.0 20 35
- 0.33264 0 1 tcp 1540 ------- 0 0.0 1.0 17 32
0.333 11
0.334 11
0.335 11
r 0.335104 1 0 ack 40 ------- 0 1.0 0.0 10 25
+ 0.335104 0 1 tcp 1540 ------- 0 0.0 1.0 21 36
+ 0.335104 0 1 tcp 1540 ------- 0 0.0 1.0 22 37
- 0.335104 0 1 tcp 1540 ------- 0 0.0 1.0 18 33
0.336 12
0.337 12
r 0.337568 1 0 ack 40 ------- 0 1.0 0.0 11 26
+ 0.337568 0 1 tcp 1540 ------- 0 0.0 1.0 23 38
+ 0.337568 0 1 tcp 1540 ------- 0 0.0 1.0 24 39
- 0.337568 0 1 tcp 1540 ------- 0 0.0 1.0 19 34
0.338 13
0.339 13
0.340 13
r 0.340032 1 0 ack 40 ------- 0 1.0 0.0 12 27
+ 0.340032 0 1 tcp 1540 ------- 0 0.0 1.0 25 40
+ 0.340032 0 1 tcp 1540 ------- 0 0.0 1.0 26 41
- 0.340032 0 1 tcp 1540 ------- 0 0.0 1.0 20 35
0.341 14
0.342 14
r 0.342496 1 0 ack 40 ------- 0 1.0 0.0 13 28
+ 0.342496 0 1 tcp 1540 ------- 0 0.0 1.0 27 42
+ 0.342496 0 1 tcp 1540 ------- 0 0.0 1.0 28 43
- 0.342496 0 1 tcp 1540 ------- 0 0.0 1.0 21 36
0.343 15
0.344 15
r 0.34496 1 0 ack 40 ------- 0 1.0 0.0 14 29
+ 0.34496 0 1 tcp 1540 ------- 0 0.0 1.0 29 44
+ 0.34496 0 1 tcp 1540 ------- 0 0.0 1.0 30 45
- 0.34496 0 1 tcp 1540 ------- 0 0.0 1.0 22 37
0.345 16
0.346 16
0.347 16
- 0.347424 0 1 tcp 1540 ------- 0 0.0 1.0 23 38
0.348 16
0.349 16
- 0.349888 0 1 tcp 1540 ------- 0 0.0 1.0 24 39
0.350 16
0.351 16
0.352 16
- 0.352352 0 1 tcp 1540 ------- 0 0.0 1.0 25 40
0.353 16
0.354 16
- 0.354816 0 1 tcp 1540 ------- 0 0.0 1.0 26 41
0.355 16
0.356 16
0.357 16
- 0.35728 0 1 tcp 1540 ------- 0 0.0 1.0 27 42
0.358 16
0.359 16
- 0.359744 0 1 tcp 1540 ------- 0 0.0 1.0 28 43
0.360 16
0.361 16
0.362 16
- 0.362208 0 1 tcp 1540 ------- 0 0.0 1.0 29 44
0.363 16
0.364 16
- 0.364672 0 1 tcp 1540 ------- 0 0.0 1.0 30 45
0.365 16
0.366 16
0.367 16
0.368 16
0.369 16
0.370 16
r 0.370176 0 1 tcp 1540 ------- 0 0.0 1.0 15 30
+ 0.370176 1 0 ack 40 ------- 0 1.0 0.0 15 46
- 0.370176 1 0 ack 40 ------- 0 1.0 0.0 15 46
0.371 16
0.372 16
r 0.37264 0 1 tcp 1540 ------- 0 0.0 1.0 16 31
+ 0.37264 1 0 ack 40 ------- 0 1.0 0.0 16 47
- 0.37264 1 0 ack 40 ------- 0 1.0 0.0 16 47
0.373 16
0.374 16
0.375 16
r 0.375104 0 1 tcp 1540 ------- 0 0.0 1.0 17 32
+ 0.375104 1 0 ack 40 ------- 0 1.0 0.0 17 48
- 0.375104 1 0 ack 40 ------- 0 1.0 0.0 17 48
0.376 16
0.377 16
r 0.377568 0 1 tcp 1540 ------- 0 0.0 1.0 18 33
+ 0.377568 1 0 ack 40 ------- 0 1.0 0.0 18 49
- 0.377568 1 0 ack 40 ------- 0 1.0 0.0 18 49
0.378 16
0.379 16
0.380 16
r 0.380032 0 1 tcp 1540 ------- 0 0.0 1.0 19 34
+ 0.380032 1 0 ack 40 ------- 0 1.0 0.0 19 50
- 0.380032 1 0 ack 40 ------- 0 1.0 0.0 19 50
0.381 16
0.382 16
r 0.382496 0 1 tcp 1540 ------- 0 0.0 1.0 20 35
+ 0.382496 1 0 ack 40 ------- 0 1.0 0.0 20 51
- 0.382496 1 0 ack 40 ------- 0 1.0 0.0 20 51
0.383 16
0.384 16
r 0.38496 0 1 tcp 1540 ------- 0 0.0 1.0 21 36
+ 0.38496 1 0 ack 40 ------- 0 1.0 0.0 21 52
- 0.38496 1 0 ack 40 ------- 0 1.0 0.0 21 52
0.385 16
0.386 16
0.387 16
r 0.387424 0 1 tcp 1540 ------- 0 0.0 1.0 22 37
+ 0.387424 1 0 ack 40 ------- 0 1.0 0.0 22 53
- 0.387424 1 0 ack 40 ------- 0 1.0 0.0 22 53
0.388 16
0.389 16
r 0.389888 0 1 tcp 1540 ------- 0 0.0 1.0 23 38
+ 0.389888 1 0 ack 40 ------- 0 1.0 0.0 23 54
- 0.389888 1 0 ack 40 ------- 0 1.0 0.0 23 54
0.390 16
0.391 16
0.392 16
r 0.392352 0 1 tcp 1540 ------- 0 0.0 1.0 24 39
+ 0.392352 1 0 ack 40 ------- 0 1.0 0.0 24 55
- 0.392352 1 0 ack 40 ------- 0 1.0 0.0 24 55
0.393 16
0.394 16
r 0.394816 0 1 tcp 1540 ------- 0 0.0 1.0 25 40
+ 0.394816 1 0 ack 40 ------- 0 1.0 0.0 25 56
- 0.394816 1 0 ack 40 ------- 0 1.0 0.0 25 56
0.395 16
0.396 16
0.397 16
r 0.39728 0 1 tcp 1540 ------- 0 0.0 1.0 26 41
+ 0.39728 1 0 ack 40 ------- 0 1.0 0.0 26 57
- 0.39728 1 0 ack 40 ------- 0 1.0 0.0 26 57
0.398 16
0.399 16
r 0.399744 0 1 tcp 1540 ------- 0 0.0 1.0 27 42
+ 0.399744 1 0 ack 40 ------- 0 1.0 0.0 27 58
- 0.399744 1 0 ack 40 ------- 0 1.0 0.0 27 58
0.400 16
0.401 16
0.402 16
r 0.402208 0 1 tcp 1540 ------- 0 0.0 1.0 28 43
+ 0.402208 1 0 ack 40 ------- 0 1.0 0.0 28 59
- 0.402208 1 0 ack 40 ------- 0 1.0 0.0 28 59
0.403 16
0.404 16
r 0.404672 0 1 tcp 1540 ------- 0 0.0 1.0 29 44
+ 0.404672 1 0 ack 40 ------- 0 1.0 0.0 29 60
- 0.404672 1 0 ack 40 ------- 0 1.0 0.0 29 60
0.405 16
0.406 16
0.407 16
r 0.407136 0 1 tcp 1540 ------- 0 0.0 1.0 30 45
+ 0.407136 1 0 ack 40 ------- 0 1.0 0.0 30 61
- 0.407136 1 0 ack 40 ------- 0 1.0 0.0 30 61
0.408 16
0.409 16
0.410 16
r 0.41024 1 0 ack 40 ------- 0 1.0 0.0 15 46
+ 0.41024 0 1 tcp 1540 ------- 0 0.0 1.0 31 62
- 0.41024 0 1 tcp 1540 ------- 0 0.0 1.0 31 62
+ 0.41024 0 1 tcp 1540 ------- 0 0.0 1.0 32 63
0.411 17
0.412 17
r 0.412704 1 0 ack 40 ------- 0 1.0 0.0 16 47
+ 0.412704 0 1 tcp 1540 ------- 0 0.0 1.0 33 64
+ 0.412704 0 1 tcp 1540 ------- 0 0.0 1.0 34 65
- 0.412704 0 1 tcp 1540 ------- 0 0.0 1.0 32 63
0.413 18
0.414 18
0.415 18
r 0.415168 1 0 ack 40 ------- 0 1.0 0.0 17 48
+ 0.415168 0 1 tcp 1540 ------- 0 0.0 1.0 35 66
+ 0.415168 0 1 tcp 1540 ------- 0 0.0 1.0 36 67
- 0.415168 0 1 tcp 1540 ------- 0 0.0 1.0 33 64
0.416 19
0.417 19
r 0.417632 1 0 ack 40 ------- 0 1.0 0.0 18 49
+ 0.417632 0 1 tcp 1540 ------- 0 0.0 1.0 37 68
+ 0.417632 0 1 tcp 1540 ------- 0 0.0 1.0 38 69
- 0.417632 0 1 tcp 1540 ------- 0 0.0 1.0 34 65
0.418 20
0.419 20
0.420 20
r 0.420096 1 0 ack 40 ------- 0 1.0 0.0 19 50
+ 0.420096 0 1 tcp 1540 ------- 0 0.0 1.0 39 70
- 0.420096 0 1 tcp 1540 ------- 0 0.0 1.0 35 66
0.421 20.05
0.422 20.05
r 0.42256 1 0 ack 40 ------- 0 1.0 0.0 20 51
+ 0.42256 0 1 tcp 1540 ------- 0 0.0 1.0 40 71
- 0.42256 0 1 tcp 1540 ------- 0 0.0 1.0 36 67
0.423 20.0999
0.424 20.0999
0.425 20.0999
r 0.425024 1 0 ack 40 ------- 0 1.0 0.0 21 52
+ 0.425024 0 1 tcp 1540 ------- 0 0.0 1.0 41 72
- 0.425024 0 1 tcp 1540 ------- 0 0.0 1.0 37 68
0.426 20.1496
0.427 20.1496
r 0.427488 1 0 ack 40 ------- 0 1.0 0.0 22 53
+ 0.427488 0 1 tcp 1540 ------- 0 0.0 1.0 42 73
- 0.427488 0 1 tcp 1540 ------- 0 0.0 1.0 38 69
0.428 20.1993
0.429 20.1993
r 0.429952 1 0 ack 40 ------- 0 1.0 0.0 23 54
+ 0.429952 0 1 tcp 1540 ------- 0 0.0 1.0 43 74
- 0.429952 0 1 tcp 1540 ------- 0 0.0 1.0 39 70
0.430 20.2488
0.431 20.2488
0.432 20.2488
r 0.432416 1 0 ack 40 ------- 0 1.0 0.0 24 55
+ 0.432416 0 1 tcp 1540 ------- 0 0.0 1.0 44 75
- 0.432416 0 1 tcp 1540 ------- 0 0.0 1.0 40 71
0.433 20.2981
0.434 20.2981
r 0.43488 1 0 ack 40 ------- 0 1.0 0.0 25 56
+ 0.43488 0 1 tcp 1540 ------- 0 0.0 1.0 45 76
- 0.43488 0 1 tcp 1540 ------- 0 0.0 1.0 41 72
0.435 20.3474
0.436 20.3474
0.437 20.3474
r 0.437344 1 0 ack 40 ------- 0 1.0 0.0 26 57
+ 0.437344 0 1 tcp 1540 ------- 0 0.0 1.0 46 77
- 0.437344 0 1 tcp 1540 ------- 0 0.0 1.0 42 73
0.438 20.3966
0.439 20.3966
r 0.439808 1 0 ack 40 ------- 0 1.0 0.0 27 58
+ 0.439808 0 1 tcp 1540 ------- 0 0.0 1.0 47 78
- 0.439808 0 1 tcp 1540 ------- 0 0.0 1.0 43 74
0.440 20.4456
0.441 20.4456
0.442 20.4456
r 0.442272 1 0 ack 40 ------- 0 1.0 0.0 28 59
+ 0.442272 0 1 tcp 1540 ------- 0 0.0 1.0 48 79
- 0.442272 0 1 tcp 1540 ------- 0 0.0 1.0 44 75
0.443 20.4945
0.444 20.4945
r 0.444736 1 0 ack 40 ------- 0 1.0 0.0 29 60
+ 0.444736 0 1 tcp 1540 ------- 0 0.0 1.0 49 80
- 0.444736 0 1 tcp 1540 ------- 0 0.0 1.0 45 76
0.445 20.5433
0.446 20.5433
0.447 20.5433
r 0.4472 1 0 ack 40 ------- 0 1.0 0.0 30 61
+ 0.4472 0 1 tcp 1540 ------- 0 0.0 1.0 50 81
- 0.4472 0 1 tcp 1540 ------- 0 0.0 1.0 46 77
0.448 20.592
0.449 20.592
- 0.449664 0 1 tcp 1540 ------- 0 0.0 1.0 47 78
0.450 20.592
0.451 20.592
0.452 20.592
- 0.452128 0 1 tcp 1540 ------- 0 0.0 1.0 48 79
r 0.452704 0 1 tcp 1540 ------- 0 0.0 1.0 31 62
+ 0.452704 1 0 ack 40 ------- 0 1.0 0.0 31 82
- 0.452704 1 0 ack 40 ------- 0 1.0 0.0 31 82
0.453 20.592
0.454 20.592
- 0.454592 0 1 tcp 1540 ------- 0 0.0 1.0 49 80
0.455 20.592
r 0.455168 0 1 tcp 1540 ------- 0 0.0 1.0 32 63
+ 0.455168 1 0 ack 40 ------- 0 1.0 0.0 32 83
- 0.455168 1 0 ack 40 ------- 0 1.0 0.0 32 83
0.456 20.592
0.457 20.592
- 0.457056 0 1 tcp 1540 ------- 0 0.0 1.0 50 81
r 0.457632 0 1 tcp 1540 ------- 0 0.0 1.0 33 64
+ 0.457632 1 0 ack 40 ------- 0 1.0 0.0 33 84
- 0.457632 1 0 ack 40 ------- 0 1.0 0.0 33 84
0.458 20.592
0.459 20.592
0.460 20.592
r 0.460096 0 1 tcp 1540 ------- 0 0.0 1.0 34 65
+ 0.460096 1 0 ack 40 ------- 0 1.0 0.0 34 85
- 0.460096 1 0 ack 40 ------- 0 1.0 0.0 34 85
0.461 20.592
0.462 20.592
r 0.46256 0 1 tcp 1540 ------- 0 0.0 1.0 35 66
+ 0.46256 1 0 ack 40 ------- 0 1.0 0.0 35 86
- 0.46256 1 0 ack 40 ------- 0 1.0 0.0 35 86
0.463 20.592
0.464 20.592
0.465 20.592
r 0.465024 0 1 tcp 1540 ------- 0 0.0 1.0 36 67
+ 0.465024 1 0 ack 40 ------- 0 1.0 0.0 36 87
- 0.465024 1 0 ack 40 ------- 0 1.0 0.0 36 87
0.466 20.592
0.467 20.592
r 0.467488 0 1 tcp 1540 ------- 0 0.0 1.0 37 68
+ 0.467488 1 0 ack 40 ------- 0 1.0 0.0 37 88
- 0.467488 1 0 ack 40 ------- 0 1.0 0.0 37 88
0.468 20.592
0.469 20.592
r 0.469952 0 1 tcp 1540 ------- 0 0.0 1.0 38 69
+ 0.469952 1 0 ack 40 ------- 0 1.0 0.0 38 89
- 0.469952 1 0 ack 40 ------- 0 1.0 0.0 38 89
0.470 20.592
0.471 20.592
0.472 20.592
r 0.472416 0 1 tcp 1540 ------- 0 0.0 1.0 39 70
+ 0.472416 1 0 ack 40 ------- 0 1.0 0.0 39 90
- 0.472416 1 0 ack 40 ------- 0 1.0 0.0 39 90
0.473 20.592
0.474 20.592
r 0.47488 0 1 tcp 1540 ------- 0 0.0 1.0 40 71
+ 0.47488 1 0 ack 40 ------- 0 1.0 0.0 40 91
- 0.47488 1 0 ack 40 ------- 0 1.0 0.0 40 91
0.475 20.592
0.476 20.592
0.477 20.592
r 0.477344 0 1 tcp 1540 ------- 0 0.0 1.0 41 72
+ 0.477344 1 0 ack 40 ------- 0 1.0 0.0 41 92
- 0.477344 1 0 ack 40 ------- 0 1.0 0.0 41 92
0.478 20.592
0.479 20.592
r 0.479808 0 1 tcp 1540 ------- 0 0.0 1.0 42 73
+ 0.479808 1 0 ack 40 ------- 0 1.0 0.0 42 93
- 0.479808 1 0 ack 40 ------- 0 1.0 0.0 42 93
0.480 20.592
0.481 20.592
0.482 20.592
r 0.482272 0 1 tcp 1540 ------- 0 0.0 1.0 43 74
+ 0.482272 1 0 ack 40 ------- 0 1.0 0.0 43 94
- 0.482272 1 0 ack 40 ------- 0 1.0 0.0 43 94
0.483 20.592
0.484 20.592
r 0.484736 0 1 tcp 1540 ------- 0 0.0 1.0 44 75
+ 0.484736 1 0 ack 40 ------- 0 1.0 0.0 44 95
- 0.484736 1 0 ack 40 ------- 0 1.0 0.0 44 95
0.485 20.592
0.486 20.592
0.487 20.592
r 0.4872 0 1 tcp 1540 ------- 0 0.0 1.0 45 76
+ 0.4872 1 0 ack 40 ------- 0 1.0 0.0 45 96
- 0.4872 1 0 ack 40 ------- 0 1.0 0.0 45 96
0.488 20.592
0.489 20.592
r 0.489664 0 1 tcp 1540 ------- 0 0.0 1.0 46 77
+ 0.489664 1 0 ack 40 ------- 0 1.0 0.0 46 97
- 0.489664 1 0 ack 40 ------- 0 1.0 0.0 46 97
0.490 20.592
0.491 20.592
0.492 20.592
r 0.492128 0 1 tcp 1540 ------- 0 0.0 1.0 47 78
+ 0.492128 1 0 ack 40 ------- 0 1.0 0.0 47 98
- 0.492128 1 0 ack 40 ------- 0 1.0 0.0 47 98
r 0.492768 1 0 ack 40 ------- 0 1.0 0.0 31 82
+ 0.492768 0 1 tcp 1540 ------- 0 0.0 1.0 51 99
- 0.492768 0 1 tcp 1540 ------- 0 0.0 1.0 51 99
0.493 20.6405
0.494 20.6405
r 0.494592 0 1 tcp 1540 ------- 0 0.0 1.0 48 79
+ 0.494592 1 0 ack 40 ------- 0 1.0 0.0 48 100
- 0.494592 1 0 ack 40 ------- 0 1.0 0.0 48 100
0.495 20.6405
r 0.495232 1 0 ack 40 ------- 0 1.0 0.0 32 83
+ 0.495232 0 1 tcp 1540 ------- 0 0.0 1.0 52 101
- 0.495232 0 1 tcp 1540 ------- 0 0.0 1.0 52 101
0.496 20.689
0.497 20.689
r 0.497056 0 1 tcp 1540 ------- 0 0.0 1.0 49 80
+ 0.497056 1 0 ack 40 ------- 0 1.0 0.0 49 102
- 0.497056 1 0 ack 40 ------- 0 1.0 0.0 49 102
r 0.497696 1 0 ack 40 ------- 0 1.0 0.0 33 84
+ 0.497696 0 1 tcp 1540 ------- 0 0.0 1.0 53 103
- 0.497696 0 1 tcp 1540 ------- 0 0.0 1.0 53 103
0.498 20.7373
0.499 20.7373
r 0.49952 0 1 tcp 1540 ------- 0 0.0 1.0 50 81
+ 0.49952 1 0 ack 40 ------- 0 1.0 0.0 50 104
- 0.49952 1 0 ack 40 ------- 0 1.0 0.0 50 104
0.500 20.7373
r 0.50016 1 0 ack 40 ------- 0 1.0 0.0 34 85
+ 0.50016 0 1 tcp 1540 ------- 0 0.0 1.0 54 105
- 0.50016 0 1 tcp 1540 ------- 0 0.0 1.0 54 105
0.501 20.7855
0.502 20.7855
r 0.502624 1 0 ack 40 ------- 0 1.0 0.0 35 86
+ 0.502624 0 1 tcp 1540 ------- 0 0.0 1.0 55 106
- 0.502624 0 1 tcp 1540 ------- 0 0.0 1.0 55 106
0.503 20.8336
0.504 20.8336
0.505 20.8336
r 0.505088 1 0 ack 40 ------- 0 1.0 0.0 36 87
+ 0.505088 0 1 tcp 1540 ------- 0 0.0 1.0 56 107
- 0.505088 0 1 tcp 1540 ------- 0 0.0 1.0 56 107
0.506 20.8816
0.507 20.8816
r 0.507552 1 0 ack 40 ------- 0 1.0 0.0 37 88
+ 0.507552 0 1 tcp 1540 ------- 0 0.0 1.0 57 108
- 0.507552 0 1 tcp 1540 ------- 0 0.0 1.0 57 108
0.508 20.9295
0.509 20.9295
0.510 20.9295
r 0.510016 1 0 ack 40 ------- 0 1.0 0.0 38 89
+ 0.510016 0 1 tcp 1540 ------- 0 0.0 1.0 58 109
- 0.510016 0 1 tcp 1540 ------- 0 0.0 1.0 58 109
0.511 20.9773
0.512 20.9773
r 0.51248 1 0 ack 40 ------- 0 1.0 0.0 39 90
+ 0.51248 0 1 tcp 1540 ------- 0 0.0 1.0 59 110
- 0.51248 0 1 tcp 1540 ------- 0 0.0 1.0 59 110
0.513 21.025
0.514 21.025
r 0.514944 1 0 ack 40 ------- 0 1.0 0.0 40 91
+ 0.514944 0 1 tcp 1540 ------- 0 0.0 1.0 60 111
- 0.514944 0 1 tcp 1540 ------- 0 0.0 1.0 60 111
0.515 21.0725
0.516 21.0725
0.517 21.0725
r 0.517408 1 0 ack 40 ------- 0 1.0 0.0 41 92
+ 0.517408 0 1 tcp 1540 ------- 0 0.0 1.0 61 112
- 0.517408 0 1 tcp 1540 ------- 0 0.0 1.0 61 112
0.518 21.12
0.519 21.12
r 0.519872 1 0 ack 40 ------- 0 1.0 0.0 42 93
+ 0.519872 0 1 tcp 1540 ------- 0 0.0 1.0 62 113
- 0.519872 0 1 tcp 1540 ------- 0 0.0 1.0 62 113
0.520 21.1674
0.521 21.1674
0.522 21.1674
r 0.522336 1 0 ack 40 ------- 0 1.0 0.0 43 94
+ 0.522336 0 1 tcp 1540 ------- 0 0.0 1.0 63 114
- 0.522336 0 1 tcp 1540 ------- 0 0.0 1.0 63 114
0.523 21.2146
0.524 21.2146
r 0.5248 1 0 ack 40 ------- 0 1.0 0.0 44 95
+ 0.5248 0 1 tcp 1540 ------- 0 0.0 1.0 64 115
- 0.5248 0 1 tcp 1540 ------- 0 0.0 1.0 64 115
0.525 21.2617
0.526 21.2617
0.527 21.2617
r 0.527264 1 0 ack 40 ------- 0 1.0 0.0 45 96
+ 0.527264 0 1 tcp 1540 ------- 0 0.0 1.0 65 116
- 0.527264 0 1 tcp 1540 ------- 0 0.0 1.0 65 116
0.528 21.3088
0.529 21.3088
r 0.529728 1 0 ack 40 ------- 0 1.0 0.0 46 97
+ 0.529728 0 1 tcp 1540 ------- 0 0.0 1.0 66 117
- 0.529728 0 1 tcp 1540 ------- 0 0.0 1.0 66 117
0.530 21.3557
0.531 21.3557
0.532 21.3557
r 0.532192 1 0 ack 40 ------- 0 1.0 0.0 47 98
+ 0.532192 0 1 tcp 1540 ------- 0 0.0 1.0 67 118
- 0.532192 0 1 tcp 1540 ------- 0 0.0 1.0 67 118
0.533 21.4025
0.534 21.4025
r 0.534656 1 0 ack 40 ------- 0 1.0 0.0 48 100
+ 0.534656 0 1 tcp 1540 ------- 0 0.0 1.0 68 119
- 0.534656 0 1 tcp 1540 ------- 0 0.0 1.0 68 119
0.535 21.4492
r 0.535232 0 1 tcp 1540 ------- 0 0.0 1.0 51 99
+ 0.535232 1 0 ack 40 ------- 0 1.0 0.0 51 120
- 0.535232 1 0 ack 40 ------- 0 1.0 0.0 51 120
0.536 21.4492
0.537 21.4492
r 0.53712 1 0 ack 40 ------- 0 1.0 0.0 49 102
+ 0.53712 0 1 tcp 1540 ------- 0 0.0 1.0 69 121
- 0.53712 0 1 tcp 1540 ------- 0 0.0 1.0 69 121
r 0.537696 0 1 tcp 1540 ------- 0 0.0 1.0 52 101
+ 0.537696 1 0 ack 40 ------- 0 1.0 0.0 52 122
- 0.537696 1 0 ack 40 ------- 0 1.0 0.0 52 122
0.538 21.4959
0.539 21.4959
r 0.539584 1 0 ack 40 ------- 0 1.0 0.0 50 104
+ 0.539584 0 1 tcp 1540 ------- 0 0.0 1.0 70 123
- 0.539584 0 1 tcp 1540 ------- 0 0.0 1.0 70 123
0.540 21.5424
r 0.54016 0 1 tcp 1540 ------- 0 0.0 1.0 53 103
+ 0.54016 1 0 ack 40 ------- 0 1.0 0.0 53 124
- 0.54016 1 0 ack 40 ------- 0 1.0 0.0 53 124
0.541 21.5424
0.542 21.5424
r 0.542624 0 1 tcp 1540 ------- 0 0.0 1.0 54 105
+ 0.542624 1 0 ack 40 ------- 0 1.0 0.0 54 125
- 0.542624 1 0 ack 40 ------- 0 1.0 0.0 54 125
0.543 21.5424
0.544 21.5424
0.545 21.5424
r 0.545088 0 1 tcp 1540 ------- 0 0.0 1.0 55 106
+ 0.545088 1 0 ack 40 ------- 0 1.0 0.0 55 126
- 0.545088 1 0 ack 40 ------- 0 1.0 0.0 55 126
0.546 21.5424
0.547 21.5424
r 0.547552 0 1 tcp 1540 ------- 0 0.0 1.0 56 107
+ 0.547552 1 0 ack 40 ------- 0 1.0 0.0 56 127
- 0.547552 1 0 ack 40 ------- 0 1.0 0.0 56 127
0.548 21.5424
0.549 21.5424
0.550 21.5424
r 0.550016 0 1 tcp 1540 ------- 0 0.0 1.0 57 108
+ 0.550016 1 0 ack 40 ------- 0 1.0 0.0 57 128
- 0.550016 1 0 ack 40 ------- 0 1.0 0.0 57 128
0.551 21.5424
0.552 21.5424
r 0.55248 0 1 tcp 1540 ------- 0 0.0 1.0 58 109
+ 0.55248 1 0 ack 40 ------- 0 1.0 0.0 58 129
- 0.55248 1 0 ack 40 ------- 0 1.0 0.0 58 129
0.553 21.5424
0.554 21.5424
r 0.554944 0 1 tcp 1540 ------- 0 0.0 1.0 59 110
+ 0.554944 1 0 ack 40 ------- 0 1.0 0.0 59 130
- 0.554944 1 0 ack 40 ------- 0 1.0 0.0 59 130
0.555 21.5424
0.556 21.5424
0.557 21.5424
r 0.557408 0 1 tcp 1540 ------- 0 0.0 1.0 60 111
+ 0.557408 1 0 ack 40 ------- 0 1.0 0.0 60 131
- 0.557408 1 0 ack 40 ------- 0 1.0 0.0 60 131
0.558 21.5424
0.559 21.5424
r 0.559872 0 1 tcp 1540 ------- 0 0.0 1.0 61 112
+ 0.559872 1 0 ack 40 ------- 0 1.0 0.0 61 132
- 0.559872 1 0 ack 40 ------- 0 1.0 0.0 61 132
0.560 21.5424
0.561 21.5424
0.562 21.5424
r 0.562336 0 1 tcp 1540 ------- 0 0.0 1.0 62 113
+ 0.562336 1 0 ack 40 ------- 0 1.0 0.0 62 133
- 0.562336 1 0 ack 40 ------- 0 1.0 0.0 62 133
0.563 21.5424
0.564 21.5424
r 0.5648 0 1 tcp 1540 ------- 0 0.0 1.0 63 114
+ 0.5648 1 0 ack 40 ------- 0 1.0 0.0 63 134
- 0.5648 1 0 ack 40 ------- 0 1.0 0.0 63 134
0.565 21.5424
0.566 21.5424
0.567 21.5424
r 0.567264 0 1 tcp 1540 ------- 0 0.0 1.0 64 115
+ 0.567264 1 0 ack 40 ------- 0 1.0 0.0 64 135
- 0.567264 1 0 ack 40 ------- 0 1.0 0.0 64 135
0.568 21.5424
0.569 21.5424
r 0.569728 0 1 tcp 1540 ------- 0 0.0 1.0 65 116
+ 0.569728 1 0 ack 40 ------- 0 1.0 0.0 65 136
- 0.569728 1 0 ack 40 ------- 0 1.0 0.0 65 136
0.570 21.5424
0.571 21.5424
0.572 21.5424
r 0.572192 0 1 tcp 1540 ------- 0 0.0 1.0 66 117
+ 0.572192 1 0 ack 40 ------- 0 1.0 0.0 66 137
- 0.572192 1 0 ack 40 ------- 0 1.0 0.0 66 137
0.573 21.5424
0.574 21.5424
r 0.574656 0 1 tcp 1540 ------- 0 0.0 1.0 67 118
+ 0.574656 1 0 ack 40 ------- 0 1.0 0.0 67 138
- 0.574656 1 0 ack 40 ------- 0 1.0 0.0 67 138
0.575 21.5424
r 0.575296 1 0 ack 40 ------- 0 1.0 0.0 51 120
+ 0.575296 0 1 tcp 1540 ------- 0 0.0 1.0 71 139
- 0.575296 0 1 tcp 1540 ------- 0 0.0 1.0 71 139
0.576 21.5888
0.577 21.5888
r 0.57712 0 1 tcp 1540 ------- 0 0.0 1.0 68 119
+ 0.57712 1 0 ack 40 ------- 0 1.0 0.0 68 140
- 0.57712 1 0 ack 40 ------- 0 1.0 0.0 68 140
r 0.57776 1 0 ack 40 ------- 0 1.0 0.0 52 122
+ 0.57776 0 1 tcp 1540 ------- 0 0.0 1.0 72 141
- 0.57776 0 1 tcp 1540 ------- 0 0.0 1.0 72 141
0.578 21.6351
0.579 21.6351
r 0.579584 0 1 tcp 1540 ------- 0 0.0 1.0 69 121
+ 0.579584 1 0 ack 40 ------- 0 1.0 0.0 69 142
- 0.579584 1 0 ack 40 ------- 0 1.0 0.0 69 142
0.580 21.6351
r 0.580224 1 0 ack 40 ------- 0 1.0 0.0 53 124
+ 0.580224 0 1 tcp 1540 ------- 0 0.0 1.0 73 143
- 0.580224 0 1 tcp 1540 ------- 0 0.0 1.0 73 143
0.581 21.6813
0.582 21.6813
r 0.582048 0 1 tcp 1540 ------- 0 0.0 1.0 70 123
+ 0.582048 1 0 ack 40 ------- 0 1.0 0.0 70 144
- 0.582048 1 0 ack 40 ------- 0 1.0 0.0 70 144
r 0.582688 1 0 ack 40 ------- 0 1.0 0.0 54 125
+ 0.582688 0 1 tcp 1540 ------- 0 0.0 1.0 74 145
- 0.582688 0 1 tcp 1540 ------- 0 0.0 1.0 74 145
0.583 21.7275
0.584 21.7275
0.585 21.7275
r 0.585152 1 0 ack 40 ------- 0 1.0 0.0 55 126
+ 0.585152 0 1 tcp 1540 ------- 0 0.0 1.0 75 146
- 0.585152 0 1 tcp 1540 ------- 0 0.0 1.0 75 146
0.586 21.7735
0.587 21.7735
r 0.587616 1 0 ack 40 ------- 0 1.0 0.0 56 127
+ 0.587616 0 1 tcp 1540 ------- 0 0.0 1.0 76 147
- 0.587616 0 1 tcp 1540 ------- 0 0.0 1.0 76 147
0.588 21.8194
0.589 21.8194
0.590 21.8194
r 0.59008 1 0 ack 40 ------- 0 1.0 0.0 57 128
+ 0.59008 0 1 tcp 1540 ------- 0 0.0 1.0 77 148
- 0.59008 0 1 tcp 1540 ------- 0 0.0 1.0 77 148
0.591 21.8653
0.592 21.8653
r 0.592544 1 0 ack 40 ------- 0 1.0 0.0 58 129
+ 0.592544 0 1 tcp 1540 ------- 0 0.0 1.0 78 149
- 0.592544 0 1 tcp 1540 ------- 0 0.0 1.0 78 149
0.593 21.911
0.594 21.911
0.595 21.911
r 0.595008 1 0 ack 40 ------- 0 1.0 0.0 59 130
+ 0.595008 0 1 tcp 1540 ------- 0 0.0 1.0 79 150
- 0.595008 0 1 tcp 1540 ------- 0 0.0 1.0 79 150
0.596 21.9566
0.597 21.9566
r 0.597472 1 0 ack 40 ------- 0 1.0 0.0 60 131
+ 0.597472 0 1 tcp 1540 ------- 0 0.0 1.0 80 151
- 0.597472 0 1 tcp 1540 ------- 0 0.0 1.0 80 151
0.598 22.0022
0.599 22.0022
r 0.599936 1 0 ack 40 ------- 0 1.0 0.0 61 132
+ 0.599936 0 1 tcp 1540 ------- 0 0.0 1.0 81 152
- 0.599936 0 1 tcp 1540 ------- 0 0.0 1.0 81 152
0.600 22.0476
0.601 22.0476
0.602 22.0476
r 0.6024 1 0 ack 40 ------- 0 1.0 0.0 62 133
+ 0.6024 0 1 tcp 1540 ------- 0 0.0 1.0 82 153
- 0.6024 0 1 tcp 1540 ------- 0 0.0 1.0 82 153
0.603 22.093
0.604 22.093
r 0.604864 1 0 ack 40 ------- 0 1.0 0.0 63 134
+ 0.604864 0 1 tcp 1540 ------- 0 0.0 1.0 83 154
- 0.604864 0 1 tcp 1540 ------- 0 0.0 1.0 83 154
0.605 22.1382
0.606 22.1382
0.607 22.1382
r 0.607328 1 0 ack 40 ------- 0 1.0 0.0 64 135
+ 0.607328 0 1 tcp 1540 ------- 0 0.0 1.0 84 155
- 0.607328 0 1 tcp 1540 ------- 0 0.0 1.0 84 155
0.608 22.1834
0.609 22.1834
r 0.609792 1 0 ack 40 ------- 0 1.0 0.0 65 136
+ 0.609792 0 1 tcp 1540 ------- 0 0.0 1.0 85 156
- 0.609792 0 1 tcp 1540 ------- 0 0.0 1.0 85 156
0.610 22.2285
0.611 22.2285
0.612 22.2285
r 0.612256 1 0 ack 40 ------- 0 1.0 0.0 66 137
+ 0.612256 0 1 tcp 1540 ------- 0 0.0 1.0 86 157
- 0.612256 0 1 tcp 1540 ------- 0 0.0 1.0 86 157
0.613 22.2735
0.614 22.2735
r 0.61472 1 0 ack 40 ------- 0 1.0 0.0 67 138
+ 0.61472 0 1 tcp 1540 ------- 0 0.0 1.0 87 158
- 0.61472 0 1 tcp 1540 ------- 0 0.0 1.0 87 158
0.615 22.3184
0.616 22.3184
0.617 22.3184
r 0.617184 1 0 ack 40 ------- 0 1.0 0.0 68 140
+ 0.617184 0 1 tcp 1540 ------- 0 0.0 1.0 88 159
- 0.617184 0 1 tcp 1540 ------- 0 0.0 1.0 88 159
r 0.61776 0 1 tcp 1540 ------- 0 0.0 1.0 71 139
+ 0.61776 1 0 ack 40 ------- 0 1.0 0.0 71 160
- 0.61776 1 0 ack 40 ------- 0 1.0 0.0 71 160
0.618 22.3632
0.619 22.3632
r 0.619648 1 0 ack 40 ------- 0 1.0 0.0 69 142
+ 0.619648 0 1 tcp 1540 ------- 0 0.0 1.0 89 161
- 0.619648 0 1 tcp 1540 ------- 0 0.0 1.0 89 161
0.620 22.4079
r 0.620224 0 1 tcp 1540 ------- 0 0.0 1.0 72 141
+ 0.620224 1 0 ack 40 ------- 0 1.0 0.0 72 162
- 0.620224 1 0 ack 40 ------- 0 1.0 0.0 72 162
0.621 22.4079
0.622 22.4079
r 0.622112 1 0 ack 40 ------- 0 1.0 0.0 70 144
+ 0.622112 0 1 tcp 1540 ------- 0 0.0 1.0 90 163
- 0.622112 0 1 tcp 1540 ------- 0 0.0 1.0 90 163
r 0.622688 0 1 tcp 1540 ------- 0 0.0 1.0 73 143
+ 0.622688 1 0 ack 40 ------- 0 1.0 0.0 73 164
- 0.622688 1 0 ack 40 ------- 0 1.0 0.0 73 164
0.623 22.4525
0.624 22.4525
0.625 22.4525
r 0.625152 0 1 tcp 1540 ------- 0 0.0 1.0 74 145
+ 0.625152 1 0 ack 40 ------- 0 1.0 0.0 74 165
- 0.625152 1 0 ack 40 ------- 0 1.0 0.0 74 165
0.626 22.4525
0.627 22.4525
r 0.627616 0 1 tcp 1540 ------- 0 0.0 1.0 75 146
+ 0.627616 1 0 ack 40 ------- 0 1.0 0.0 75 166
- 0.627616 1 0 ack 40 ------- 0 1.0 0.0 75 166
0.628 22.4525
0.629 22.4525
0.630 22.4525
r 0.63008 0 1 tcp 1540 ------- 0 0.0 1.0 76 147
+ 0.63008 1 0 ack 40 ------- 0 1.0 0.0 76 167
- 0.63008 1 0 ack 40 ------- 0 1.0 0.0 76 167
0.631 22.4525
0.632 22.4525
r 0.632544 0 1 tcp 1540 ------- 0 0.0 1.0 77 148
+ 0.632544 1 0 ack 40 ------- 0 1.0 0.0 77 168
- 0.632544 1 0 ack 40 ------- 0 1.0 0.0 77 168
0.633 22.4525
0.634 22.4525
0.635 22.4525
r 0.635008 0 1 tcp 1540 ------- 0 0.0 1.0 78 149
+ 0.635008 1 0 ack 40 ------- 0 1.0 0.0 78 169
- 0.635008 1 0 ack 40 ------- 0 1.0 0.0 78 169
0.636 22.4525
0.637 22.4525
r 0.637472 0 1 tcp 1540 ------- 0 0.0 1.0 79 150
+ 0.637472 1 0 ack 40 ------- 0 1.0 0.0 79 170
- 0.637472 1 0 ack 40 ------- 0 1.0 0.0 79 170
0.638 22.4525
0.639 22.4525
r 0.639936 0 1 tcp 1540 ------- 0 0.0 1.0 80 151
+ 0.639936 1 0 ack 40 ------- 0 1.0 0.0 80 171
- 0.639936 1 0 ack 40 ------- 0 1.0 0.0 80 171
0.640 22.4525
0.641 22.4525
0.642 22.4525
r 0.6424 0 1 tcp 1540 ------- 0 0.0 1.0 81 152
+ 0.6424 1 0 ack 40 ------- 0 1.0 0.0 81 172
- 0.6424 1 0 ack 40 ------- 0 1.0 0.0 81 172
0.643 22.4525
0.644 22.4525