+ 0 0 1 tcp 40 ------- 0 0.0 1.0 0 0
- 0 0 1 tcp 40 ------- 0 0.0 1.0 0 0
0.000 1
0.001 1
0.002 1
0.003 1
0.004 1
0.005 1
0.006 1
0.007 1
0.008 1
0.009 1
0.010 1
0.011 1
0.012 1
0.013 1
0.014 1
0.015 1
0.016 1
0.017 1
0.018 1
0.019 1
0.020 1
0.021 1
0.022 1
0.023 1
0.024 1
0.025 1
0.026 1
0.027 1
0.028 1
0.029 1
0.030 1
0.031 1
0.032 1
0.033 1
0.034 1
0.035 1
0.036 1
0.037 1
0.038 1
0.039 1
0.040 1
r 0.04032 0 1 tcp 40 ------- 0 0.0 1.0 0 0
+ 0.04032 1 0 ack 40 ------- 0 1.0 0.0 0 1
- 0.04032 1 0 ack 40 ------- 0 1.0 0.0 0 1
0.041 1
0.042 1
0.043 1
0.044 1
0.045 1
0.046 1
0.047 1
0.048 1
0.049 1
0.050 1
0.051 1
0.052 1
0.053 1
0.054 1
0.055 1
0.056 1
0.057 1
0.058 1
0.059 1
0.060 1
0.061 1
0.062 1
0.063 1
0.064 1
0.065 1
0.066 1
0.067 1
0.068 1
0.069 1
0.070 1
0.071 1
0.072 1
0.073 1
0.074 1
0.075 1
0.076 1
0.077 1
0.078 1
0.079 1
0.080 1
r 0.08064 1 0 ack 40 ------- 0 1.0 0.0 0 1
+ 0.08064 0 1 tcp 1540 ------- 0 0.0 1.0 1 2
- 0.08064 0 1 tcp 1540 ------- 0 0.0 1.0 1 2
+ 0.08064 0 1 tcp 1540 ------- 0 0.0 1.0 2 3
0.081 2
0.082 2
0.083 2
0.084 2
0.085 2
0.086 2
0.087 2
0.088 2
0.089 2
0.090 2
0.091 2
0.092 2
- 0.09296 0 1 tcp 1540 ------- 0 0.0 1.0 2 3
0.093 2
0.094 2
0.095 2
0.096 2
0.097 2
0.098 2
0.099 2
0.100 2
0.101 2
0.102 2
0.103 2
0.104 2
0.105 2
0.106 2
0.107 2
0.108 2
0.109 2
0.110 2
0.111 2
0.112 2
0.113 2
0.114 2
0.115 2
0.116 2
0.117 2
0.118 2
0.119 2
0.120 2
0.121 2
0.122 2
0.123 2
0.124 2
0.125 2
0.126 2
0.127 2
0.128 2
0.129 2
0.130 2
0.131 2
0.132 2
r 0.13296 0 1 tcp 1540 ------- 0 0.0 1.0 1 2
+ 0.13296 1 0 ack 40 ------- 0 1.0 0.0 1 4
- 0.13296 1 0 ack 40 ------- 0 1.0 0.0 1 4
0.133 2
0.134 2
0.135 2
0.136 2
0.137 2
0.138 2
0.139 2
0.140 2
0.141 2
0.142 2
0.143 2
0.144 2
0.145 2
r 0.14528 0 1 tcp 1540 ------- 0 0.0 1.0 2 3
+ 0.14528 1 0 ack 40 ------- 0 1.0 0.0 2 5
- 0.14528 1 0 ack 40 ------- 0 1.0 0.0 2 5
0.146 2
0.147 2
0.148 2
0.149 2
0.150 2
0.151 2
0.152 2
0.153 2
0.154 2
0.155 2
0.156 2
0.157 2
0.158 2
0.159 2
0.160 2
0.161 2
0.162 2
0.163 2
0.164 2
0.165 2
0.166 2
0.167 2
0.168 2
0.169 2
0.170 2
0.171 2
0.172 2
0.173 2
r 0.17328 1 0 ack 40 ------- 0 1.0 0.0 1 4
+ 0.17328 0 1 tcp 1540 ------- 0 0.0 1.0 3 6
- 0.17328 0 1 tcp 1540 ------- 0 0.0 1.0 3 6
+ 0.17328 0 1 tcp 1540 ------- 0 0.0 1.0 4 7
0.174 3
0.175 3
0.176 3
0.177 3
0.178 3
0.179 3
0.180 3
0.181 3
0.182 3
0.183 3
0.184 3
0.185 3
r 0.1856 1 0 ack 40 ------- 0 1.0 0.0 2 5
+ 0.1856 0 1 tcp 1540 ------- 0 0.0 1.0 5 8
+ 0.1856 0 1 tcp 1540 ------- 0 0.0 1.0 6 9
- 0.1856 0 1 tcp 1540 ------- 0 0.0 1.0 4 7
0.186 4
0.187 4
0.188 4
0.189 4
0.190 4
0.191 4
0.192 4
0.193 4
0.194 4
0.195 4
0.196 4
0.197 4
- 0.19792 0 1 tcp 1540 ------- 0 0.0 1.0 5 8
0.198 4
0.199 4
0.200 4
0.201 4
0.202 4
0.203 4
0.204 4
0.205 4
0.206 4
0.207 4
0.208 4
0.209 4
0.210 4
- 0.21024 0 1 tcp 1540 ------- 0 0.0 1.0 6 9
0.211 4
0.212 4
0.213 4
0.214 4
0.215 4
0.216 4
0.217 4
0.218 4
0.219 4
0.220 4
0.221 4
0.222 4
0.223 4
0.224 4
0.225 4
r 0.2256 0 1 tcp 1540 ------- 0 0.0 1.0 3 6
+ 0.2256 1 0 ack 40 ------- 0 1.0 0.0 3 10
- 0.2256 1 0 ack 40 ------- 0 1.0 0.0 3 10
0.226 4
0.227 4
0.228 4
0.229 4
0.230 4
0.231 4
0.232 4
0.233 4
0.234 4
0.235 4
0.236 4
0.237 4
r 0.23792 0 1 tcp 1540 ------- 0 0.0 1.0 4 7
+ 0.23792 1 0 ack 40 ------- 0 1.0 0.0 4 11
- 0.23792 1 0 ack 40 ------- 0 1.0 0.0 4 11
0.238 4
0.239 4
0.240 4
0.241 4
0.242 4
0.243 4
0.244 4
0.245 4
0.246 4
0.247 4
0.248 4
0.249 4
0.250 4
r 0.25024 0 1 tcp 1540 ------- 0 0.0 1.0 5 8
+ 0.25024 1 0 ack 40 ------- 0 1.0 0.0 5 12
- 0.25024 1 0 ack 40 ------- 0 1.0 0.0 5 12
0.251 4
0.252 4
0.253 4
0.254 4
0.255 4
0.256 4
0.257 4
0.258 4
0.259 4
0.260 4
0.261 4
0.262 4
r 0.26256 0 1 tcp 1540 ------- 0 0.0 1.0 6 9
+ 0.26256 1 0 ack 40 ------- 0 1.0 0.0 6 13
- 0.26256 1 0 ack 40 ------- 0 1.0 0.0 6 13
0.263 4
0.264 4
0.265 4
r 0.26592 1 0 ack 40 ------- 0 1.0 0.0 3 10
+ 0.26592 0 1 tcp 1540 ------- 0 0.0 1.0 7 14
- 0.26592 0 1 tcp 1540 ------- 0 0.0 1.0 7 14
+ 0.26592 0 1 tcp 1540 ------- 0 0.0 1.0 8 15
0.266 5
0.267 5
0.268 5
0.269 5
0.270 5
0.271 5
0.272 5
0.273 5
0.274 5
0.275 5
0.276 5
0.277 5
0.278 5
r 0.27824 1 0 ack 40 ------- 0 1.0 0.0 4 11
+ 0.27824 0 1 tcp 1540 ------- 0 0.0 1.0 9 16
+ 0.27824 0 1 tcp 1540 ------- 0 0.0 1.0 10 17
- 0.27824 0 1 tcp 1540 ------- 0 0.0 1.0 8 15
0.279 6
0.280 6
0.281 6
0.282 6
0.283 6
0.284 6
0.285 6
0.286 6
0.287 6
0.288 6
0.289 6
0.290 6
r 0.29056 1 0 ack 40 ------- 0 1.0 0.0 5 12
+ 0.29056 0 1 tcp 1540 ------- 0 0.0 1.0 11 18
+ 0.29056 0 1 tcp 1540 ------- 0 0.0 1.0 12 19
- 0.29056 0 1 tcp 1540 ------- 0 0.0 1.0 9 16
0.291 7
0.292 7
0.293 7
0.294 7
0.295 7
0.296 7
0.297 7
0.298 7
0.299 7
0.300 7
0.301 7
0.302 7
r 0.30288 1 0 ack 40 ------- 0 1.0 0.0 6 13
+ 0.30288 0 1 tcp 1540 ------- 0 0.0 1.0 13 20
+ 0.30288 0 1 tcp 1540 ------- 0 0.0 1.0 14 21
- 0.30288 0 1 tcp 1540 ------- 0 0.0 1.0 10 17
0.303 8
0.304 8
0.305 8
0.306 8
0.307 8
0.308 8
0.309 8
0.310 8
0.311 8
0.312 8
0.313 8
0.314 8
0.315 8
- 0.3152 0 1 tcp 1540 ------- 0 0.0 1.0 11 18
0.316 8
0.317 8
0.318 8
r 0.31824 0 1 tcp 1540 ------- 0 0.0 1.0 7 14
+ 0.31824 1 0 ack 40 ------- 0 1.0 0.0 7 22
- 0.31824 1 0 ack 40 ------- 0 1.0 0.0 7 22
0.319 8
0.320 8
0.321 8
0.322 8
0.323 8
0.324 8
0.325 8
0.326 8
0.327 8
- 0.32752 0 1 tcp 1540 ------- 0 0.0 1.0 12 19
0.328 8
0.329 8
0.330 8
r 0.33056 0 1 tcp 1540 ------- 0 0.0 1.0 8 15
+ 0.33056 1 0 ack 40 ------- 0 1.0 0.0 8 23
- 0.33056 1 0 ack 40 ------- 0 1.0 0.0 8 23
0.331 8
0.332 8
0.333 8
0.334 8
0.335 8
0.336 8
0.337 8
0.338 8
0.339 8
- 0.33984 0 1 tcp 1540 ------- 0 0.0 1.0 13 20
0.340 8
0.341 8
0.342 8
r 0.34288 0 1 tcp 1540 ------- 0 0.0 1.0 9 16
+ 0.34288 1 0 ack 40 ------- 0 1.0 0.0 9 24
- 0.34288 1 0 ack 40 ------- 0 1.0 0.0 9 24
0.343 8
0.344 8
0.345 8
0.346 8
0.347 8
0.348 8
0.349 8
0.350 8
0.351 8
0.352 8
- 0.35216 0 1 tcp 1540 ------- 0 0.0 1.0 14 21
0.353 8
0.354 8
0.355 8
r 0.3552 0 1 tcp 1540 ------- 0 0.0 1.0 10 17
+ 0.3552 1 0 ack 40 ------- 0 1.0 0.0 10 25
- 0.3552 1 0 ack 40 ------- 0 1.0 0.0 10 25
0.356 8
0.357 8
0.358 8
r 0.35856 1 0 ack 40 ------- 0 1.0 0.0 7 22
+ 0.35856 0 1 tcp 1540 ------- 0 0.0 1.0 15 26
+ 0.35856 0 1 tcp 1540 ------- 0 0.0 1.0 16 27
0.359 9
0.360 9
0.361 9
0.362 9
0.363 9
0.364 9
- 0.36448 0 1 tcp 1540 ------- 0 0.0 1.0 15 26
0.365 9
0.366 9
0.367 9
r 0.36752 0 1 tcp 1540 ------- 0 0.0 1.0 11 18
+ 0.36752 1 0 ack 40 ------- 0 1.0 0.0 11 28
- 0.36752 1 0 ack 40 ------- 0 1.0 0.0 11 28
0.368 9
0.369 9
0.370 9
r 0.37088 1 0 ack 40 ------- 0 1.0 0.0 8 23
+ 0.37088 0 1 tcp 1540 ------- 0 0.0 1.0 17 29
+ 0.37088 0 1 tcp 1540 ------- 0 0.0 1.0 18 30
0.371 10
0.372 10
0.373 10
0.374 10
0.375 10
0.376 10
- 0.3768 0 1 tcp 1540 ------- 0 0.0 1.0 16 27
0.377 10
0.378 10
0.379 10
r 0.37984 0 1 tcp 1540 ------- 0 0.0 1.0 12 19
+ 0.37984 1 0 ack 40 ------- 0 1.0 0.0 12 31
- 0.37984 1 0 ack 40 ------- 0 1.0 0.0 12 31
0.380 10
0.381 10
0.382 10
0.383 10
r 0.3832 1 0 ack 40 ------- 0 1.0 0.0 9 24
+ 0.3832 0 1 tcp 1540 ------- 0 0.0 1.0 19 32
+ 0.3832 0 1 tcp 1540 ------- 0 0.0 1.0 20 33
0.384 11
0.385 11
0.386 11
0.387 11
0.388 11
0.389 11
- 0.38912 0 1 tcp 1540 ------- 0 0.0 1.0 17 29
0.390 11
0.391 11
0.392 11
r 0.39216 0 1 tcp 1540 ------- 0 0.0 1.0 13 20
+ 0.39216 1 0 ack 40 ------- 0 1.0 0.0 13 34
- 0.39216 1 0 ack 40 ------- 0 1.0 0.0 13 34
0.393 11
0.394 11
0.395 11
r 0.39552 1 0 ack 40 ------- 0 1.0 0.0 10 25
+ 0.39552 0 1 tcp 1540 ------- 0 0.0 1.0 21 35
+ 0.39552 0 1 tcp 1540 ------- 0 0.0 1.0 22 36
0.396 12
0.397 12
0.398 12
0.399 12
0.400 12
0.401 12
- 0.40144 0 1 tcp 1540 ------- 0 0.0 1.0 18 30
0.402 12
0.403 12
0.404 12
r 0.40448 0 1 tcp 1540 ------- 0 0.0 1.0 14 21
+ 0.40448 1 0 ack 40 ------- 0 1.0 0.0 14 37
- 0.40448 1 0 ack 40 ------- 0 1.0 0.0 14 37
0.405 12
0.406 12
0.407 12
r 0.40784 1 0 ack 40 ------- 0 1.0 0.0 11 28
+ 0.40784 0 1 tcp 1540 ------- 0 0.0 1.0 23 38
+ 0.40784 0 1 tcp 1540 ------- 0 0.0 1.0 24 39
0.408 13
0.409 13
0.410 13
0.411 13
0.412 13
0.413 13
- 0.41376 0 1 tcp 1540 ------- 0 0.0 1.0 19 32
0.414 13
0.415 13
0.416 13
r 0.4168 0 1 tcp 1540 ------- 0 0.0 1.0 15 26
+ 0.4168 1 0 ack 40 ------- 0 1.0 0.0 15 40
- 0.4168 1 0 ack 40 ------- 0 1.0 0.0 15 40
0.417 13
0.418 13
0.419 13
0.420 13
r 0.42016 1 0 ack 40 ------- 0 1.0 0.0 12 31
+ 0.42016 0 1 tcp 1540 ------- 0 0.0 1.0 25 41
+ 0.42016 0 1 tcp 1540 ------- 0 0.0 1.0 26 42
0.421 14
0.422 14
0.423 14
0.424 14
0.425 14
0.426 14
- 0.42608 0 1 tcp 1540 ------- 0 0.0 1.0 20 33
0.427 14
0.428 14
0.429 14
r 0.42912 0 1 tcp 1540 ------- 0 0.0 1.0 16 27
+ 0.42912 1 0 ack 40 ------- 0 1.0 0.0 16 43
- 0.42912 1 0 ack 40 ------- 0 1.0 0.0 16 43
0.430 14
0.431 14
0.432 14
r 0.43248 1 0 ack 40 ------- 0 1.0 0.0 13 34
+ 0.43248 0 1 tcp 1540 ------- 0 0.0 1.0 27 44
+ 0.43248 0 1 tcp 1540 ------- 0 0.0 1.0 28 45
0.433 15
0.434 15
0.435 15
0.436 15
0.437 15
0.438 15
- 0.4384 0 1 tcp 1540 ------- 0 0.0 1.0 21 35
0.439 15
0.440 15
0.441 15
r 0.44144 0 1 tcp 1540 ------- 0 0.0 1.0 17 29
+ 0.44144 1 0 ack 40 ------- 0 1.0 0.0 17 46
- 0.44144 1 0 ack 40 ------- 0 1.0 0.0 17 46
0.442 15
0.443 15
0.444 15
r 0.4448 1 0 ack 40 ------- 0 1.0 0.0 14 37
+ 0.4448 0 1 tcp 1540 ------- 0 0.0 1.0 29 47
+ 0.4448 0 1 tcp 1540 ------- 0 0.0 1.0 30 48
0.445 16
0.446 16
0.447 16
0.448 16
0.449 16
0.450 16
- 0.45072 0 1 tcp 1540 ------- 0 0.0 1.0 22 36
0.451 16
0.452 16
0.453 16
r 0.45376 0 1 tcp 1540 ------- 0 0.0 1.0 18 30
+ 0.45376 1 0 ack 40 ------- 0 1.0 0.0 18 49
- 0.45376 1 0 ack 40 ------- 0 1.0 0.0 18 49
0.454 16
0.455 16
0.456 16
0.457 16
r 0.45712 1 0 ack 40 ------- 0 1.0 0.0 15 40
+ 0.45712 0 1 tcp 1540 ------- 0 0.0 1.0 31 50
+ 0.45712 0 1 tcp 1540 ------- 0 0.0 1.0 32 51
0.458 17
0.459 17
0.460 17
0.461 17
0.462 17
0.463 17
- 0.46304 0 1 tcp 1540 ------- 0 0.0 1.0 23 38
0.464 17
0.465 17
0.466 17
r 0.46608 0 1 tcp 1540 ------- 0 0.0 1.0 19 32
+ 0.46608 1 0 ack 40 ------- 0 1.0 0.0 19 52
- 0.46608 1 0 ack 40 ------- 0 1.0 0.0 19 52
0.467 17
0.468 17
0.469 17
r 0.46944 1 0 ack 40 ------- 0 1.0 0.0 16 43
+ 0.46944 0 1 tcp 1540 ------- 0 0.0 1.0 33 53
+ 0.46944 0 1 tcp 1540 ------- 0 0.0 1.0 34 54
0.470 18
0.471 18
0.472 18
0.473 18
0.474 18
0.475 18
- 0.47536 0 1 tcp 1540 ------- 0 0.0 1.0 24 39
0.476 18
0.477 18
0.478 18
r 0.4784 0 1 tcp 1540 ------- 0 0.0 1.0 20 33
+ 0.4784 1 0 ack 40 ------- 0 1.0 0.0 20 55
- 0.4784 1 0 ack 40 ------- 0 1.0 0.0 20 55
0.479 18
0.480 18
0.481 18
r 0.48176 1 0 ack 40 ------- 0 1.0 0.0 17 46
+ 0.48176 0 1 tcp 1540 ------- 0 0.0 1.0 35 56
+ 0.48176 0 1 tcp 1540 ------- 0 0.0 1.0 36 57
0.482 19
0.483 19
0.484 19
0.485 19
0.486 19
0.487 19
- 0.48768 0 1 tcp 1540 ------- 0 0.0 1.0 25 41
0.488 19
0.489 19
0.490 19
r 0.49072 0 1 tcp 1540 ------- 0 0.0 1.0 21 35
+ 0.49072 1 0 ack 40 ------- 0 1.0 0.0 21 58
- 0.49072 1 0 ack 40 ------- 0 1.0 0.0 21 58
0.491 19
0.492 19
0.493 19
0.494 19
r 0.49408 1 0 ack 40 ------- 0 1.0 0.0 18 49
+ 0.49408 0 1 tcp 1540 ------- 0 0.0 1.0 37 59
+ 0.49408 0 1 tcp 1540 ------- 0 0.0 1.0 38 60
0.495 20
0.496 20
0.497 20
0.498 20
0.499 20
- 0.5 0 1 tcp 1540 ------- 0 0.0 1.0 26 42
0.500 20
0.501 20
0.502 20
0.503 20
r 0.50304 0 1 tcp 1540 ------- 0 0.0 1.0 22 36
+ 0.50304 1 0 ack 40 ------- 0 1.0 0.0 22 61
- 0.50304 1 0 ack 40 ------- 0 1.0 0.0 22 61
0.504 20
0.505 20
0.506 20
r 0.5064 1 0 ack 40 ------- 0 1.0 0.0 19 52
+ 0.5064 0 1 tcp 1540 ------- 0 0.0 1.0 39 62
0.507 20.05
0.508 20.05
0.509 20.05
0.510 20.05
0.511 20.05
0.512 20.05
- 0.51232 0 1 tcp 1540 ------- 0 0.0 1.0 27 44
0.513 20.05
0.514 20.05
0.515 20.05
r 0.51536 0 1 tcp 1540 ------- 0 0.0 1.0 23 38
+ 0.51536 1 0 ack 40 ------- 0 1.0 0.0 23 63
- 0.51536 1 0 ack 40 ------- 0 1.0 0.0 23 63
0.516 20.05
0.517 20.05
0.518 20.05
r 0.51872 1 0 ack 40 ------- 0 1.0 0.0 20 55
+ 0.51872 0 1 tcp 1540 ------- 0 0.0 1.0 40 64
0.519 20.0999
0.520 20.0999
0.521 20.0999
0.522 20.0999
0.523 20.0999
0.524 20.0999
- 0.52464 0 1 tcp 1540 ------- 0 0.0 1.0 28 45
0.525 20.0999
0.526 20.0999
0.527 20.0999
r 0.52768 0 1 tcp 1540 ------- 0 0.0 1.0 24 39
+ 0.52768 1 0 ack 40 ------- 0 1.0 0.0 24 65
- 0.52768 1 0 ack 40 ------- 0 1.0 0.0 24 65
0.528 20.0999
0.529 20.0999
0.530 20.0999
0.531 20.0999
r 0.53104 1 0 ack 40 ------- 0 1.0 0.0 21 58
+ 0.53104 0 1 tcp 1540 ------- 0 0.0 1.0 41 66
0.532 20.1496
0.533 20.1496
0.534 20.1496
0.535 20.1496
0.536 20.1496
- 0.53696 0 1 tcp 1540 ------- 0 0.0 1.0 29 47
0.537 20.1496
0.538 20.1496
0.539 20.1496
r 0.54 0 1 tcp 1540 ------- 0 0.0 1.0 25 41
+ 0.54 1 0 ack 40 ------- 0 1.0 0.0 25 67
- 0.54 1 0 ack 40 ------- 0 1.0 0.0 25 67
0.540 20.1496
0.541 20.1496
0.542 20.1496
0.543 20.1496
r 0.54336 1 0 ack 40 ------- 0 1.0 0.0 22 61
+ 0.54336 0 1 tcp 1540 ------- 0 0.0 1.0 42 68
0.544 20.1993
0.545 20.1993
0.546 20.1993
0.547 20.1993
0.548 20.1993
0.549 20.1993
- 0.54928 0 1 tcp 1540 ------- 0 0.0 1.0 30 48
0.550 20.1993
0.551 20.1993
0.552 20.1993
r 0.55232 0 1 tcp 1540 ------- 0 0.0 1.0 26 42
+ 0.55232 1 0 ack 40 ------- 0 1.0 0.0 26 69
- 0.55232 1 0 ack 40 ------- 0 1.0 0.0 26 69
0.553 20.1993
0.554 20.1993
0.555 20.1993
r 0.55568 1 0 ack 40 ------- 0 1.0 0.0 23 63
+ 0.55568 0 1 tcp 1540 ------- 0 0.0 1.0 43 70
0.556 20.2488
0.557 20.2488
0.558 20.2488
0.559 20.2488
0.560 20.2488
0.561 20.2488
- 0.5616 0 1 tcp 1540 ------- 0 0.0 1.0 31 50
0.562 20.2488
0.563 20.2488
0.564 20.2488
r 0.56464 0 1 tcp 1540 ------- 0 0.0 1.0 27 44
+ 0.56464 1 0 ack 40 ------- 0 1.0 0.0 27 71
- 0.56464 1 0 ack 40 ------- 0 1.0 0.0 27 71
0.565 20.2488
0.566 20.2488
0.567 20.2488
r 0.568 1 0 ack 40 ------- 0 1.0 0.0 24 65
+ 0.568 0 1 tcp 1540 ------- 0 0.0 1.0 44 72
0.568 20.2981
0.569 20.2981
0.570 20.2981
0.571 20.2981
0.572 20.2981
0.573 20.2981
- 0.57392 0 1 tcp 1540 ------- 0 0.0 1.0 32 51
0.574 20.2981
0.575 20.2981
0.576 20.2981
r 0.57696 0 1 tcp 1540 ------- 0 0.0 1.0 28 45
+ 0.57696 1 0 ack 40 ------- 0 1.0 0.0 28 73
- 0.57696 1 0 ack 40 ------- 0 1.0 0.0 28 73
0.577 20.2981
0.578 20.2981
0.579 20.2981
0.580 20.2981
r 0.58032 1 0 ack 40 ------- 0 1.0 0.0 25 67
+ 0.58032 0 1 tcp 1540 ------- 0 0.0 1.0 45 74
0.581 20.3474
0.582 20.3474
0.583 20.3474
0.584 20.3474
0.585 20.3474
0.586 20.3474
- 0.58624 0 1 tcp 1540 ------- 0 0.0 1.0 33 53
0.587 20.3474
0.588 20.3474
0.589 20.3474
r 0.58928 0 1 tcp 1540 ------- 0 0.0 1.0 29 47
+ 0.58928 1 0 ack 40 ------- 0 1.0 0.0 29 75
- 0.58928 1 0 ack 40 ------- 0 1.0 0.0 29 75
0.590 20.3474
0.591 20.3474
0.592 20.3474
r 0.59264 1 0 ack 40 ------- 0 1.0 0.0 26 69
+ 0.59264 0 1 tcp 1540 ------- 0 0.0 1.0 46 76
0.593 20.3966
0.594 20.3966
0.595 20.3966
0.596 20.3966
0.597 20.3966
0.598 20.3966
- 0.59856 0 1 tcp 1540 ------- 0 0.0 1.0 34 54
0.599 20.3966
0.600 20.3966
0.601 20.3966
r 0.6016 0 1 tcp 1540 ------- 0 0.0 1.0 30 48
+ 0.6016 1 0 ack 40 ------- 0 1.0 0.0 30 77
- 0.6016 1 0 ack 40 ------- 0 1.0 0.0 30 77
0.602 20.3966
0.603 20.3966
0.604 20.3966
r 0.60496 1 0 ack 40 ------- 0 1.0 0.0 27 71
+ 0.60496 0 1 tcp 1540 ------- 0 0.0 1.0 47 78
0.605 20.4456
0.606 20.4456
0.607 20.4456
0.608 20.4456
0.609 20.4456
0.610 20.4456
- 0.61088 0 1 tcp 1540 ------- 0 0.0 1.0 35 56
0.611 20.4456
0.612 20.4456
0.613 20.4456
r 0.61392 0 1 tcp 1540 ------- 0 0.0 1.0 31 50
+ 0.61392 1 0 ack 40 ------- 0 1.0 0.0 31 79
- 0.61392 1 0 ack 40 ------- 0 1.0 0.0 31 79
0.614 20.4456
0.615 20.4456
0.616 20.4456
0.617 20.4456
r 0.61728 1 0 ack 40 ------- 0 1.0 0.0 28 73
+ 0.61728 0 1 tcp 1540 ------- 0 0.0 1.0 48 80
0.618 20.4945
0.619 20.4945
0.620 20.4945
0.621 20.4945
0.622 20.4945
0.623 20.4945
- 0.6232 0 1 tcp 1540 ------- 0 0.0 1.0 36 57
0.624 20.4945
0.625 20.4945
0.626 20.4945
r 0.62624 0 1 tcp 1540 ------- 0 0.0 1.0 32 51
+ 0.62624 1 0 ack 40 ------- 0 1.0 0.0 32 81
- 0.62624 1 0 ack 40 ------- 0 1.0 0.0 32 81
0.627 20.4945
0.628 20.4945
0.629 20.4945
r 0.6296 1 0 ack 40 ------- 0 1.0 0.0 29 75
+ 0.6296 0 1 tcp 1540 ------- 0 0.0 1.0 49 82
0.630 20.5433
0.631 20.5433
0.632 20.5433
0.633 20.5433
0.634 20.5433
0.635 20.5433
- 0.63552 0 1 tcp 1540 ------- 0 0.0 1.0 37 59
0.636 20.5433
0.637 20.5433
0.638 20.5433
r 0.63856 0 1 tcp 1540 ------- 0 0.0 1.0 33 53
+ 0.63856 1 0 ack 40 ------- 0 1.0 0.0 33 83
- 0.63856 1 0 ack 40 ------- 0 1.0 0.0 33 83
0.639 20.5433
0.640 20.5433
0.641 20.5433
r 0.64192 1 0 ack 40 ------- 0 1.0 0.0 30 77
+ 0.64192 0 1 tcp 1540 ------- 0 0.0 1.0 50 84
0.642 20.592
0.643 20.592
0.644 20.592
0.645 20.592
0.646 20.592
0.647 20.592
- 0.64784 0 1 tcp 1540 ------- 0 0.0 1.0 38 60
0.648 20.592
0.649 20.592
0.650 20.592
r 0.65088 0 1 tcp 1540 ------- 0 0.0 1.0 34 54
+ 0.65088 1 0 ack 40 ------- 0 1.0 0.0 34 85
- 0.65088 1 0 ack 40 ------- 0 1.0 0.0 34 85
0.651 20.592
0.652 20.592
0.653 20.592
0.654 20.592
r 0.65424 1 0 ack 40 ------- 0 1.0 0.0 31 79
+ 0.65424 0 1 tcp 1540 ------- 0 0.0 1.0 51 86
0.655 20.6405
0.656 20.6405
0.657 20.6405
0.658 20.6405
0.659 20.6405
0.660 20.6405
- 0.66016 0 1 tcp 1540 ------- 0 0.0 1.0 39 62
0.661 20.6405
0.662 20.6405
0.663 20.6405
r 0.6632 0 1 tcp 1540 ------- 0 0.0 1.0 35 56
+ 0.6632 1 0 ack 40 ------- 0 1.0 0.0 35 87
- 0.6632 1 0 ack 40 ------- 0 1.0 0.0 35 87
0.664 20.6405
0.665 20.6405
0.666 20.6405
r 0.66656 1 0 ack 40 ------- 0 1.0 0.0 32 81
+ 0.66656 0 1 tcp 1540 ------- 0 0.0 1.0 52 88
0.667 20.689
0.668 20.689
0.669 20.689
0.670 20.689
0.671 20.689
0.672 20.689
- 0.67248 0 1 tcp 1540 ------- 0 0.0 1.0 40 64
0.673 20.689
0.674 20.689
0.675 20.689
r 0.67552 0 1 tcp 1540 ------- 0 0.0 1.0 36 57
+ 0.67552 1 0 ack 40 ------- 0 1.0 0.0 36 89
- 0.67552 1 0 ack 40 ------- 0 1.0 0.0 36 89
0.676 20.689
0.677 20.689
0.678 20.689
r 0.67888 1 0 ack 40 ------- 0 1.0 0.0 33 83
+ 0.67888 0 1 tcp 1540 ------- 0 0.0 1.0 53 90
0.679 20.7373
0.680 20.7373
0.681 20.7373
0.682 20.7373
0.683 20.7373
0.684 20.7373
- 0.6848 0 1 tcp 1540 ------- 0 0.0 1.0 41 66
0.685 20.7373
0.686 20.7373
0.687 20.7373
r 0.68784 0 1 tcp 1540 ------- 0 0.0 1.0 37 59
+ 0.68784 1 0 ack 40 ------- 0 1.0 0.0 37 91
- 0.68784 1 0 ack 40 ------- 0 1.0 0.0 37 91
0.688 20.7373
0.689 20.7373
0.690 20.7373
0.691 20.7373
r 0.6912 1 0 ack 40 ------- 0 1.0 0.0 34 85
+ 0.6912 0 1 tcp 1540 ------- 0 0.0 1.0 54 92
0.692 20.7855
0.693 20.7855
0.694 20.7855
0.695 20.7855
0.696 20.7855
0.697 20.7855
- 0.69712 0 1 tcp 1540 ------- 0 0.0 1.0 42 68
0.698 20.7855
0.699 20.7855
0.700 20.7855
r 0.70016 0 1 tcp 1540 ------- 0 0.0 1.0 38 60
+ 0.70016 1 0 ack 40 ------- 0 1.0 0.0 38 93
- 0.70016 1 0 ack 40 ------- 0 1.0 0.0 38 93
0.701 20.7855
0.702 20.7855
0.703 20.7855
r 0.70352 1 0 ack 40 ------- 0 1.0 0.0 35 87
0.704 20.8336
0.705 20.8336
0.706 20.8336
0.707 20.8336
0.708 20.8336
0.709 20.8336
- 0.70944 0 1 tcp 1540 ------- 0 0.0 1.0 43 70
0.710 20.8336
0.711 20.8336
0.712 20.8336
r 0.71248 0 1 tcp 1540 ------- 0 0.0 1.0 39 62
+ 0.71248 1 0 ack 40 ------- 0 1.0 0.0 39 94
- 0.71248 1 0 ack 40 ------- 0 1.0 0.0 39 94
0.713 20.8336
0.714 20.8336
0.715 20.8336
r 0.71584 1 0 ack 40 ------- 0 1.0 0.0 36 89
0.716 20.8816
0.717 20.8816
0.718 20.8816
0.719 20.8816
0.720 20.8816
0.721 20.8816
- 0.72176 0 1 tcp 1540 ------- 0 0.0 1.0 44 72
0.722 20.8816
0.723 20.8816
0.724 20.8816
r 0.7248 0 1 tcp 1540 ------- 0 0.0 1.0 40 64
+ 0.7248 1 0 ack 40 ------- 0 1.0 0.0 40 95
- 0.7248 1 0 ack 40 ------- 0 1.0 0.0 40 95
0.725 20.8816
0.726 20.8816
0.727 20.8816
0.728 20.8816
r 0.72816 1 0 ack 40 ------- 0 1.0 0.0 37 91
0.729 20.9295
0.730 20.9295
0.731 20.9295
0.732 20.9295
0.733 20.9295
0.734 20.9295
- 0.73408 0 1 tcp 1540 ------- 0 0.0 1.0 45 74
0.735 20.9295
0.736 20.9295
0.737 20.9295
r 0.73712 0 1 tcp 1540 ------- 0 0.0 1.0 41 66
+ 0.73712 1 0 ack 40 ------- 0 1.0 0.0 41 96
- 0.73712 1 0 ack 40 ------- 0 1.0 0.0 41 96
0.738 20.9295
0.739 20.9295
0.740 20.9295
r 0.74048 1 0 ack 40 ------- 0 1.0 0.0 38 93
0.741 20.9773
0.742 20.9773
0.743 20.9773
0.744 20.9773
0.745 20.9773
0.746 20.9773
- 0.7464 0 1 tcp 1540 ------- 0 0.0 1.0 46 76
0.747 20.9773
0.748 20.9773
0.749 20.9773
r 0.74944 0 1 tcp 1540 ------- 0 0.0 1.0 42 68
+ 0.74944 1 0 ack 40 ------- 0 1.0 0.0 42 97
- 0.74944 1 0 ack 40 ------- 0 1.0 0.0 42 97
0.750 20.9773
0.751 20.9773
0.752 20.9773
r 0.7528 1 0 ack 40 ------- 0 1.0 0.0 39 94
0.753 21.025
0.754 21.025
0.755 21.025
0.756 21.025
0.757 21.025
0.758 21.025
- 0.75872 0 1 tcp 1540 ------- 0 0.0 1.0 47 78
0.759 21.025
0.760 21.025
0.761 21.025
r 0.76176 0 1 tcp 1540 ------- 0 0.0 1.0 43 70
+ 0.76176 1 0 ack 40 ------- 0 1.0 0.0 43 98
- 0.76176 1 0 ack 40 ------- 0 1.0 0.0 43 98
0.762 21.025
0.763 21.025
0.764 21.025
0.765 21.025
r 0.76512 1 0 ack 40 ------- 0 1.0 0.0 40 95
0.766 21.0725
0.767 21.0725
0.768 21.0725
0.769 21.0725
0.770 21.0725
0.771 21.0725
- 0.77104 0 1 tcp 1540 ------- 0 0.0 1.0 48 80
0.772 21.0725
0.773 21.0725
0.774 21.0725
r 0.77408 0 1 tcp 1540 ------- 0 0.0 1.0 44 72
+ 0.77408 1 0 ack 40 ------- 0 1.0 0.0 44 99
- 0.77408 1 0 ack 40 ------- 0 1.0 0.0 44 99
0.775 21.0725
0.776 21.0725
0.777 21.0725
r 0.77744 1 0 ack 40 ------- 0 1.0 0.0 41 96
0.778 21.12
0.779 21.12
0.780 21.12
0.781 21.12
0.782 21.12
0.783 21.12
- 0.78336 0 1 tcp 1540 ------- 0 0.0 1.0 49 82
0.784 21.12
0.785 21.12
0.786 21.12
r 0.7864 0 1 tcp 1540 ------- 0 0.0 1.0 45 74
+ 0.7864 1 0 ack 40 ------- 0 1.0 0.0 45 100
- 0.7864 1 0 ack 40 ------- 0 1.0 0.0 45 100
0.787 21.12
0.788 21.12
0.789 21.12
r 0.78976 1 0 ack 40 ------- 0 1.0 0.0 42 97
0.790 21.1674
0.791 21.1674
0.792 21.1674
0.793 21.1674
0.794 21.1674
0.795 21.1674
- 0.79568 0 1 tcp 1540 ------- 0 0.0 1.0 50 84
0.796 21.1674
0.797 21.1674
0.798 21.1674
r 0.79872 0 1 tcp 1540 ------- 0 0.0 1.0 46 76
+ 0.79872 1 0 ack 40 ------- 0 1.0 0.0 46 101
- 0.79872 1 0 ack 40 ------- 0 1.0 0.0 46 101
0.799 21.1674
0.800 21.1674
0.801 21.1674
0.802 21.1674
r 0.80208 1 0 ack 40 ------- 0 1.0 0.0 43 98
0.803 21.2146
0.804 21.2146
0.805 21.2146
0.806 21.2146
0.807 21.2146
- 0.808 0 1 tcp 1540 ------- 0 0.0 1.0 51 86
0.808 21.2146
0.809 21.2146
0.810 21.2146
0.811 21.2146
r 0.81104 0 1 tcp 1540 ------- 0 0.0 1.0 47 78
+ 0.81104 1 0 ack 40 ------- 0 1.0 0.0 47 102
- 0.81104 1 0 ack 40 ------- 0 1.0 0.0 47 102
0.812 21.2146
0.813 21.2146
0.814 21.2146
r 0.8144 1 0 ack 40 ------- 0 1.0 0.0 44 99
0.815 21.2617
0.816 21.2617
0.817 21.2617
0.818 21.2617
0.819 21.2617
0.820 21.2617
- 0.82032 0 1 tcp 1540 ------- 0 0.0 1.0 52 88
0.821 21.2617
0.822 21.2617
0.823 21.2617
r 0.82336 0 1 tcp 1540 ------- 0 0.0 1.0 48 80
+ 0.82336 1 0 ack 40 ------- 0 1.0 0.0 48 103
- 0.82336 1 0 ack 40 ------- 0 1.0 0.0 48 103
0.824 21.2617
0.825 21.2617
0.826 21.2617
r 0.82672 1 0 ack 40 ------- 0 1.0 0.0 45 100
0.827 21.3088
0.828 21.3088
0.829 21.3088
0.830 21.3088
0.831 21.3088
0.832 21.3088
- 0.83264 0 1 tcp 1540 ------- 0 0.0 1.0 53 90
0.833 21.3088
0.834 21.3088
0.835 21.3088
r 0.83568 0 1 tcp 1540 ------- 0 0.0 1.0 49 82
+ 0.83568 1 0 ack 40 ------- 0 1.0 0.0 49 104
- 0.83568 1 0 ack 40 ------- 0 1.0 0.0 49 104
0.836 21.3088
0.837 21.3088
0.838 21.3088
0.839 21.3088
r 0.83904 1 0 ack 40 ------- 0 1.0 0.0 46 101
0.840 21.3557
0.841 21.3557
0.842 21.3557
0.843 21.3557
0.844 21.3557
- 0.84496 0 1 tcp 1540 ------- 0 0.0 1.0 54 92
0.845 21.3557
0.846 21.3557
0.847 21.3557
r 0.848 0 1 tcp 1540 ------- 0 0.0 1.0 50 84
+ 0.848 1 0 ack 40 ------- 0 1.0 0.0 50 105
- 0.848 1 0 ack 40 ------- 0 1.0 0.0 50 105
0.848 21.3557
0.849 21.3557
0.850 21.3557
0.851 21.3557
r 0.85136 1 0 ack 40 ------- 0 1.0 0.0 47 102
0.852 21.4025
0.853 21.4025
0.854 21.4025
0.855 21.4025
0.856 21.4025
0.857 21.4025
0.858 21.4025
0.859 21.4025
0.860 21.4025
r 0.86032 0 1 tcp 1540 ------- 0 0.0 1.0 51 86
+ 0.86032 1 0 ack 40 ------- 0 1.0 0.0 51 106
- 0.86032 1 0 ack 40 ------- 0 1.0 0.0 51 106
0.861 21.4025
0.862 21.4025
0.863 21.4025
r 0.86368 1 0 ack 40 ------- 0 1.0 0.0 48 103
0.864 21.4492
0.865 21.4492
0.866 21.4492
0.867 21.4492
0.868 21.4492
0.869 21.4492
0.870 21.4492
0.871 21.4492
0.872 21.4492
r 0.87264 0 1 tcp 1540 ------- 0 0.0 1.0 52 88
+ 0.87264 1 0 ack 40 ------- 0 1.0 0.0 52 107
- 0.87264 1 0 ack 40 ------- 0 1.0 0.0 52 107
0.873 21.4492
0.874 21.4492
0.875 21.4492
r 0.876 1 0 ack 40 ------- 0 1.0 0.0 49 104
0.876 21.4959
0.877 21.4959
0.878 21.4959
0.879 21.4959
0.880 21.4959
0.881 21.4959
0.882 21.4959
0.883 21.4959
0.884 21.4959
r 0.88496 0 1 tcp 1540 ------- 0 0.0 1.0 53 90
+ 0.88496 1 0 ack 40 ------- 0 1.0 0.0 53 108
- 0.88496 1 0 ack 40 ------- 0 1.0 0.0 53 108
0.885 21.4959
0.886 21.4959
0.887 21.4959
0.888 21.4959
r 0.88832 1 0 ack 40 ------- 0 1.0 0.0 50 105
0.889 21.5424
0.890 21.5424
0.891 21.5424
0.892 21.5424
0.893 21.5424
0.894 21.5424
0.895 21.5424
0.896 21.5424
0.897 21.5424
r 0.89728 0 1 tcp 1540 ------- 0 0.0 1.0 54 92
+ 0.89728 1 0 ack 40 ------- 0 1.0 0.0 54 109
- 0.89728 1 0 ack 40 ------- 0 1.0 0.0 54 109
0.898 21.5424
0.899 21.5424
0.900 21.5424
r 0.90064 1 0 ack 40 ------- 0 1.0 0.0 51 106
0.901 21.5888
0.902 21.5888
0.903 21.5888
0.904 21.5888
0.905 21.5888
0.906 21.5888
0.907 21.5888
0.908 21.5888
0.909 21.5888
0.910 21.5888
0.911 21.5888
0.912 21.5888
r 0.91296 1 0 ack 40 ------- 0 1.0 0.0 52 107
0.913 21.6351
0.914 21.6351
0.915 21.6351
0.916 21.6351
0.917 21.6351
0.918 21.6351
0.919 21.6351
0.920 21.6351
0.921 21.6351
0.922 21.6351
0.923 21.6351
0.924 21.6351
0.925 21.6351
r 0.92528 1 0 ack 40 ------- 0 1.0 0.0 53 108
0.926 21.6813
0.927 21.6813
0.928 21.6813
0.929 21.6813
0.930 21.6813
0.931 21.6813
0.932 21.6813
0.933 21.6813
0.934 21.6813
0.935 21.6813
0.936 21.6813
0.937 21.6813
r 0.9376 1 0 ack 40 ------- 0 1.0 0.0 54 109
0.938 21.7275
0.939 21.7275
0.940 21.7275
0.941 21.7275
0.942 21.7275
0.943 21.7275
0.944 21.7275
0.945 21.7275
0.946 21.7275
0.947 21.7275
0.948 21.7275
0.949 21.7275
0.950 21.7275
0.951 21.7275
0.952 21.7275
0.953 21.7275
0.954 21.7275
0.955 21.7275
0.956 21.7275
0.957 21.7275
0.958 21.7275
0.959 21.7275
0.960 21.7275
0.961 21.7275
0.962 21.7275
0.963 21.7275
0.964 21.7275
0.965 21.7275
0.966 21.7275
0.967 21.7275
0.968 21.7275
0.969 21.7275
0.970 21.7275
0.971 21.7275
0.972 21.7275
0.973 21.7275
0.974 21.7275
0.975 21.7275
0.976 21.7275
0.977 21.7275
0.978 21.7275
0.979 21.7275
0.980 21.7275
0.981 21.7275
0.982 21.7275
0.983 21.7275
0.984 21.7275
0.985 21.7275
0.986 21.7275
0.987 21.7275
0.988 21.7275
0.989 21.7275
0.990 21.7275
0.991 21.7275
0.992 21.7275
0.993 21.7275
0.994 21.7275
0.995 21.7275
0.996 21.7275
0.997 21.7275
0.998 21.7275
0.999 21.7275
