+ 0 0 1 tcp 40 ------- 0 0.0 1.0 0 0
- 0 0 1 tcp 40 ------- 0 0.0 1.0 0 0
0.000 1
0.001 1
0.002 1
0.003 1
0.004 1
0.005 1
0.006 1
0.007 1
0.008 1
0.009 1
0.010 1
0.011 1
0.012 1
0.013 1
0.014 1
0.015 1
0.016 1
0.017 1
0.018 1
0.019 1
0.020 1
0.021 1
0.022 1
0.023 1
0.024 1
0.025 1
0.026 1
0.027 1
0.028 1
0.029 1
0.030 1
0.031 1
0.032 1
0.033 1
0.034 1
0.035 1
0.036 1
0.037 1
0.038 1
0.039 1
0.040 1
r 0.040032 0 1 tcp 40 ------- 0 0.0 1.0 0 0
+ 0.040032 1 0 ack 40 ------- 0 1.0 0.0 0 1
- 0.040032 1 0 ack 40 ------- 0 1.0 0.0 0 1
0.041 1
0.042 1
0.043 1
0.044 1
0.045 1
0.046 1
0.047 1
0.048 1
0.049 1
0.050 1
0.051 1
0.052 1
0.053 1
0.054 1
0.055 1
0.056 1
0.057 1
0.058 1
0.059 1
0.060 1
0.061 1
0.062 1
0.063 1
0.064 1
0.065 1
0.066 1
0.067 1
0.068 1
0.069 1
0.070 1
0.071 1
0.072 1
0.073 1
0.074 1
0.075 1
0.076 1
0.077 1
0.078 1
0.079 1
0.080 1
r 0.080064 1 0 ack 40 ------- 0 1.0 0.0 0 1
+ 0.080064 0 1 tcp 1540 ------- 0 0.0 1.0 1 2
- 0.080064 0 1 tcp 1540 ------- 0 0.0 1.0 1 2
+ 0.080064 0 1 tcp 1540 ------- 0 0.0 1.0 2 3
0.081 2
- 0.081296 0 1 tcp 1540 ------- 0 0.0 1.0 2 3
0.082 2
0.083 2
0.084 2
0.085 2
0.086 2
0.087 2
0.088 2
0.089 2
0.090 2
0.091 2
0.092 2
0.093 2
0.094 2
0.095 2
0.096 2
0.097 2
0.098 2
0.099 2
0.100 2
0.101 2
0.102 2
0.103 2
0.104 2
0.105 2
0.106 2
0.107 2
0.108 2
0.109 2
0.110 2
0.111 2
0.112 2
0.113 2
0.114 2
0.115 2
0.116 2
0.117 2
0.118 2
0.119 2
0.120 2
0.121 2
r 0.121296 0 1 tcp 1540 ------- 0 0.0 1.0 1 2
+ 0.121296 1 0 ack 40 ------- 0 1.0 0.0 1 4
- 0.121296 1 0 ack 40 ------- 0 1.0 0.0 1 4
0.122 2
r 0.122528 0 1 tcp 1540 ------- 0 0.0 1.0 2 3
+ 0.122528 1 0 ack 40 ------- 0 1.0 0.0 2 5
- 0.122528 1 0 ack 40 ------- 0 1.0 0.0 2 5
0.123 2
0.124 2
0.125 2
0.126 2
0.127 2
0.128 2
0.129 2
0.130 2
0.131 2
0.132 2
0.133 2
0.134 2
0.135 2
0.136 2
0.137 2
0.138 2
0.139 2
0.140 2
0.141 2
0.142 2
0.143 2
0.144 2
0.145 2
0.146 2
0.147 2
0.148 2
0.149 2
0.150 2
0.151 2
0.152 2
0.153 2
0.154 2
0.155 2
0.156 2
0.157 2
0.158 2
0.159 2
0.160 2
0.161 2
r 0.161328 1 0 ack 40 ------- 0 1.0 0.0 1 4
+ 0.161328 0 1 tcp 1540 ------- 0 0.0 1.0 3 6
- 0.161328 0 1 tcp 1540 ------- 0 0.0 1.0 3 6
+ 0.161328 0 1 tcp 1540 ------- 0 0.0 1.0 4 7
0.162 3
r 0.16256 1 0 ack 40 ------- 0 1.0 0.0 2 5
+ 0.16256 0 1 tcp 1540 ------- 0 0.0 1.0 5 8
+ 0.16256 0 1 tcp 1540 ------- 0 0.0 1.0 6 9
- 0.16256 0 1 tcp 1540 ------- 0 0.0 1.0 4 7
0.163 4
- 0.163792 0 1 tcp 1540 ------- 0 0.0 1.0 5 8
0.164 4
0.165 4
- 0.165024 0 1 tcp 1540 ------- 0 0.0 1.0 6 9
0.166 4
0.167 4
0.168 4
0.169 4
0.170 4
0.171 4
0.172 4
0.173 4
0.174 4
0.175 4
0.176 4
0.177 4
0.178 4
0.179 4
0.180 4
0.181 4
0.182 4
0.183 4
0.184 4
0.185 4
0.186 4
0.187 4
0.188 4
0.189 4
0.190 4
0.191 4
0.192 4
0.193 4
0.194 4
0.195 4
0.196 4
0.197 4
0.198 4
0.199 4
0.200 4
0.201 4
0.202 4
r 0.20256 0 1 tcp 1540 ------- 0 0.0 1.0 3 6
+ 0.20256 1 0 ack 40 ------- 0 1.0 0.0 3 10
- 0.20256 1 0 ack 40 ------- 0 1.0 0.0 3 10
0.203 4
r 0.203792 0 1 tcp 1540 ------- 0 0.0 1.0 4 7
+ 0.203792 1 0 ack 40 ------- 0 1.0 0.0 4 11
- 0.203792 1 0 ack 40 ------- 0 1.0 0.0 4 11
0.204 4
0.205 4
r 0.205024 0 1 tcp 1540 ------- 0 0.0 1.0 5 8
+ 0.205024 1 0 ack 40 ------- 0 1.0 0.0 5 12
- 0.205024 1 0 ack 40 ------- 0 1.0 0.0 5 12
0.206 4
r 0.206256 0 1 tcp 1540 ------- 0 0.0 1.0 6 9
+ 0.206256 1 0 ack 40 ------- 0 1.0 0.0 6 13
- 0.206256 1 0 ack 40 ------- 0 1.0 0.0 6 13
0.207 4
0.208 4
0.209 4
0.210 4
0.211 4
0.212 4
0.213 4
0.214 4
0.215 4
0.216 4
0.217 4
0.218 4
0.219 4
0.220 4
0.221 4
0.222 4
0.223 4
0.224 4
0.225 4
0.226 4
0.227 4
0.228 4
0.229 4
0.230 4
0.231 4
0.232 4
0.233 4
0.234 4
0.235 4
0.236 4
0.237 4
0.238 4
0.239 4
0.240 4
0.241 4
0.242 4
r 0.242592 1 0 ack 40 ------- 0 1.0 0.0 3 10
+ 0.242592 0 1 tcp 1540 ------- 0 0.0 1.0 7 14
- 0.242592 0 1 tcp 1540 ------- 0 0.0 1.0 7 14
+ 0.242592 0 1 tcp 1540 ------- 0 0.0 1.0 8 15
0.243 5
r 0.243824 1 0 ack 40 ------- 0 1.0 0.0 4 11
+ 0.243824 0 1 tcp 1540 ------- 0 0.0 1.0 9 16
+ 0.243824 0 1 tcp 1540 ------- 0 0.0 1.0 10 17
- 0.243824 0 1 tcp 1540 ------- 0 0.0 1.0 8 15
0.244 6
0.245 6
r 0.245056 1 0 ack 40 ------- 0 1.0 0.0 5 12
+ 0.245056 0 1 tcp 1540 ------- 0 0.0 1.0 11 18
+ 0.245056 0 1 tcp 1540 ------- 0 0.0 1.0 12 19
- 0.245056 0 1 tcp 1540 ------- 0 0.0 1.0 9 16
0.246 7
r 0.246288 1 0 ack 40 ------- 0 1.0 0.0 6 13
+ 0.246288 0 1 tcp 1540 ------- 0 0.0 1.0 13 20
+ 0.246288 0 1 tcp 1540 ------- 0 0.0 1.0 14 21
- 0.246288 0 1 tcp 1540 ------- 0 0.0 1.0 10 17
0.247 8
- 0.24752 0 1 tcp 1540 ------- 0 0.0 1.0 11 18
0.248 8
- 0.248752 0 1 tcp 1540 ------- 0 0.0 1.0 12 19
0.249 8
- 0.249984 0 1 tcp 1540 ------- 0 0.0 1.0 13 20
0.250 8
0.251 8
- 0.251216 0 1 tcp 1540 ------- 0 0.0 1.0 14 21
0.252 8
0.253 8
0.254 8
0.255 8
0.256 8
0.257 8
0.258 8
0.259 8
0.260 8
0.261 8
0.262 8
0.263 8
0.264 8
0.265 8
0.266 8
0.267 8
0.268 8
0.269 8
0.270 8
0.271 8
0.272 8
0.273 8
0.274 8
0.275 8
0.276 8
0.277 8
0.278 8
0.279 8
0.280 8
0.281 8
0.282 8
0.283 8
r 0.283824 0 1 tcp 1540 ------- 0 0.0 1.0 7 14
+ 0.283824 1 0 ack 40 ------- 0 1.0 0.0 7 22
- 0.283824 1 0 ack 40 ------- 0 1.0 0.0 7 22
0.284 8
0.285 8
r 0.285056 0 1 tcp 1540 ------- 0 0.0 1.0 8 15
+ 0.285056 1 0 ack 40 ------- 0 1.0 0.0 8 23
- 0.285056 1 0 ack 40 ------- 0 1.0 0.0 8 23
0.286 8
r 0.286288 0 1 tcp 1540 ------- 0 0.0 1.0 9 16
+ 0.286288 1 0 ack 40 ------- 0 1.0 0.0 9 24
- 0.286288 1 0 ack 40 ------- 0 1.0 0.0 9 24
0.287 8
r 0.28752 0 1 tcp 1540 ------- 0 0.0 1.0 10 17
+ 0.28752 1 0 ack 40 ------- 0 1.0 0.0 10 25
- 0.28752 1 0 ack 40 ------- 0 1.0 0.0 10 25
0.288 8
r 0.288752 0 1 tcp 1540 ------- 0 0.0 1.0 11 18
+ 0.288752 1 0 ack 40 ------- 0 1.0 0.0 11 26
- 0.288752 1 0 ack 40 ------- 0 1.0 0.0 11 26
0.289 8
r 0.289984 0 1 tcp 1540 ------- 0 0.0 1.0 12 19
+ 0.289984 1 0 ack 40 ------- 0 1.0 0.0 12 27
- 0.289984 1 0 ack 40 ------- 0 1.0 0.0 12 27
0.290 8
0.291 8
r 0.291216 0 1 tcp 1540 ------- 0 0.0 1.0 13 20
+ 0.291216 1 0 ack 40 ------- 0 1.0 0.0 13 28
- 0.291216 1 0 ack 40 ------- 0 1.0 0.0 13 28
0.292 8
r 0.292448 0 1 tcp 1540 ------- 0 0.0 1.0 14 21
+ 0.292448 1 0 ack 40 ------- 0 1.0 0.0 14 29
- 0.292448 1 0 ack 40 ------- 0 1.0 0.0 14 29
0.293 8
0.294 8
0.295 8
0.296 8
0.297 8
0.298 8
0.299 8
0.300 8
0.301 8
0.302 8
0.303 8
0.304 8
0.305 8
0.306 8
0.307 8
0.308 8
0.309 8
0.310 8
0.311 8
0.312 8
0.313 8
0.314 8
0.315 8
0.316 8
0.317 8
0.318 8
0.319 8
0.320 8
0.321 8
0.322 8
0.323 8
r 0.323856 1 0 ack 40 ------- 0 1.0 0.0 7 22
+ 0.323856 0 1 tcp 1540 ------- 0 0.0 1.0 15 30
- 0.323856 0 1 tcp 1540 ------- 0 0.0 1.0 15 30
+ 0.323856 0 1 tcp 1540 ------- 0 0.0 1.0 16 31
0.324 9
0.325 9
r 0.325088 1 0 ack 40 ------- 0 1.0 0.0 8 23
+ 0.325088 0 1 tcp 1540 ------- 0 0.0 1.0 17 32
+ 0.325088 0 1 tcp 1540 ------- 0 0.0 1.0 18 33
- 0.325088 0 1 tcp 1540 ------- 0 0.0 1.0 16 31
0.326 10
r 0.32632 1 0 ack 40 ------- 0 1.0 0.0 9 24
+ 0.32632 0 1 tcp 1540 ------- 0 0.0 1.0 19 34
- 0.32632 0 1 tcp 1540 ------- 0 0.0 1.0 17 32
0.327 10
r 0.327552 1 0 ack 40 ------- 0 1.0 0.0 10 25
+ 0.327552 0 1 tcp 1540 ------- 0 0.0 1.0 20 35
- 0.327552 0 1 tcp 1540 ------- 0 0.0 1.0 18 33
0.328 10
r 0.328784 1 0 ack 40 ------- 0 1.0 0.0 11 26
+ 0.328784 0 1 tcp 1540 ------- 0 0.0 1.0 21 36
- 0.328784 0 1 tcp 1540 ------- 0 0.0 1.0 19 34
0.329 10
0.330 10
r 0.330016 1 0 ack 40 ------- 0 1.0 0.0 12 27
+ 0.330016 0 1 tcp 1540 ------- 0 0.0 1.0 22 37
- 0.330016 0 1 tcp 1540 ------- 0 0.0 1.0 20 35
0.331 10
r 0.331248 1 0 ack 40 ------- 0 1.0 0.0 13 28
+ 0.331248 0 1 tcp 1540 ------- 0 0.0 1.0 23 38
- 0.331248 0 1 tcp 1540 ------- 0 0.0 1.0 21 36
0.332 10
r 0.33248 1 0 ack 40 ------- 0 1.0 0.0 14 29
+ 0.33248 0 1 tcp 1540 ------- 0 0.0 1.0 24 39
- 0.33248 0 1 tcp 1540 ------- 0 0.0 1.0 22 37
0.333 10
- 0.333712 0 1 tcp 1540 ------- 0 0.0 1.0 23 38
0.334 10
- 0.334944 0 1 tcp 1540 ------- 0 0.0 1.0 24 39
0.335 10
0.336 10
0.337 10
0.338 10
0.339 10
0.340 10
0.341 10
0.342 10
0.343 10
0.344 10
0.345 10
0.346 10
0.347 10
0.348 10
0.349 10
0.350 10
0.351 10
0.352 10
0.353 10
0.354 10
0.355 10
0.356 10
0.357 10
0.358 10
0.359 10
0.360 10
0.361 10
0.362 10
0.363 10
0.364 10
0.365 10
r 0.365088 0 1 tcp 1540 ------- 0 0.0 1.0 15 30
+ 0.365088 1 0 ack 40 ------- 0 1.0 0.0 15 40
- 0.365088 1 0 ack 40 ------- 0 1.0 0.0 15 40
0.366 10
r 0.36632 0 1 tcp 1540 ------- 0 0.0 1.0 16 31
+ 0.36632 1 0 ack 40 ------- 0 1.0 0.0 16 41
- 0.36632 1 0 ack 40 ------- 0 1.0 0.0 16 41
0.367 10
r 0.367552 0 1 tcp 1540 ------- 0 0.0 1.0 17 32
+ 0.367552 1 0 ack 40 ------- 0 1.0 0.0 17 42
- 0.367552 1 0 ack 40 ------- 0 1.0 0.0 17 42
0.368 10
r 0.368784 0 1 tcp 1540 ------- 0 0.0 1.0 18 33
+ 0.368784 1 0 ack 40 ------- 0 1.0 0.0 18 43
- 0.368784 1 0 ack 40 ------- 0 1.0 0.0 18 43
0.369 10
0.370 10
r 0.370016 0 1 tcp 1540 ------- 0 0.0 1.0 19 34
+ 0.370016 1 0 ack 40 ------- 0 1.0 0.0 19 44
- 0.370016 1 0 ack 40 ------- 0 1.0 0.0 19 44
0.371 10
r 0.371248 0 1 tcp 1540 ------- 0 0.0 1.0 20 35
+ 0.371248 1 0 ack 40 ------- 0 1.0 0.0 20 45
- 0.371248 1 0 ack 40 ------- 0 1.0 0.0 20 45
0.372 10
r 0.37248 0 1 tcp 1540 ------- 0 0.0 1.0 21 36
+ 0.37248 1 0 ack 40 ------- 0 1.0 0.0 21 46
- 0.37248 1 0 ack 40 ------- 0 1.0 0.0 21 46
0.373 10
r 0.373712 0 1 tcp 1540 ------- 0 0.0 1.0 22 37
+ 0.373712 1 0 ack 40 ------- 0 1.0 0.0 22 47
- 0.373712 1 0 ack 40 ------- 0 1.0 0.0 22 47
0.374 10
r 0.374944 0 1 tcp 1540 ------- 0 0.0 1.0 23 38
+ 0.374944 1 0 ack 40 ------- 0 1.0 0.0 23 48
- 0.374944 1 0 ack 40 ------- 0 1.0 0.0 23 48
0.375 10
0.376 10
r 0.376176 0 1 tcp 1540 ------- 0 0.0 1.0 24 39
+ 0.376176 1 0 ack 40 ------- 0 1.0 0.0 24 49
- 0.376176 1 0 ack 40 ------- 0 1.0 0.0 24 49
0.377 10
0.378 10
0.379 10
0.380 10
0.381 10
0.382 10
0.383 10
0.384 10
0.385 10
0.386 10
0.387 10
0.388 10
0.389 10
0.390 10
0.391 10
0.392 10
0.393 10
0.394 10
0.395 10
0.396 10
0.397 10
0.398 10
0.399 10
0.400 10
0.401 10
0.402 10
0.403 10
0.404 10
0.405 10
r 0.40512 1 0 ack 40 ------- 0 1.0 0.0 15 40
+ 0.40512 0 1 tcp 1540 ------- 0 0.0 1.0 25 50
- 0.40512 0 1 tcp 1540 ------- 0 0.0 1.0 25 50
0.406 10
r 0.406352 1 0 ack 40 ------- 0 1.0 0.0 16 41
+ 0.406352 0 1 tcp 1540 ------- 0 0.0 1.0 26 51
- 0.406352 0 1 tcp 1540 ------- 0 0.0 1.0 26 51
0.407 10
r 0.407584 1 0 ack 40 ------- 0 1.0 0.0 17 42
+ 0.407584 0 1 tcp 1540 ------- 0 0.0 1.0 27 52
- 0.407584 0 1 tcp 1540 ------- 0 0.0 1.0 27 52
0.408 10
r 0.408816 1 0 ack 40 ------- 0 1.0 0.0 18 43
+ 0.408816 0 1 tcp 1540 ------- 0 0.0 1.0 28 53
- 0.408816 0 1 tcp 1540 ------- 0 0.0 1.0 28 53
0.409 10
0.410 10
r 0.410048 1 0 ack 40 ------- 0 1.0 0.0 19 44
+ 0.410048 0 1 tcp 1540 ------- 0 0.0 1.0 29 54
- 0.410048 0 1 tcp 1540 ------- 0 0.0 1.0 29 54
0.411 10
r 0.41128 1 0 ack 40 ------- 0 1.0 0.0 20 45
+ 0.41128 0 1 tcp 1540 ------- 0 0.0 1.0 30 55
- 0.41128 0 1 tcp 1540 ------- 0 0.0 1.0 30 55
0.412 10
r 0.412512 1 0 ack 40 ------- 0 1.0 0.0 21 46
+ 0.412512 0 1 tcp 1540 ------- 0 0.0 1.0 31 56
- 0.412512 0 1 tcp 1540 ------- 0 0.0 1.0 31 56
0.413 10
r 0.413744 1 0 ack 40 ------- 0 1.0 0.0 22 47
+ 0.413744 0 1 tcp 1540 ------- 0 0.0 1.0 32 57
- 0.413744 0 1 tcp 1540 ------- 0 0.0 1.0 32 57
0.414 10
r 0.414976 1 0 ack 40 ------- 0 1.0 0.0 23 48
+ 0.414976 0 1 tcp 1540 ------- 0 0.0 1.0 33 58
- 0.414976 0 1 tcp 1540 ------- 0 0.0 1.0 33 58
0.415 10
0.416 10
r 0.416208 1 0 ack 40 ------- 0 1.0 0.0 24 49
+ 0.416208 0 1 tcp 1540 ------- 0 0.0 1.0 34 59
- 0.416208 0 1 tcp 1540 ------- 0 0.0 1.0 34 59
0.417 10
0.418 10
0.419 10
0.420 10
0.421 10
0.422 10
0.423 10
0.424 10
0.425 10
0.426 10
0.427 10
0.428 10
0.429 10
0.430 10
0.431 10
0.432 10
0.433 10
0.434 10
0.435 10
0.436 10
0.437 10
0.438 10
0.439 10
0.440 10
0.441 10
0.442 10
0.443 10
0.444 10
0.445 10
0.446 10
r 0.446352 0 1 tcp 1540 ------- 0 0.0 1.0 25 50
+ 0.446352 1 0 ack 40 ------- 0 1.0 0.0 25 60
- 0.446352 1 0 ack 40 ------- 0 1.0 0.0 25 60
0.447 10
r 0.447584 0 1 tcp 1540 ------- 0 0.0 1.0 26 51
+ 0.447584 1 0 ack 40 ------- 0 1.0 0.0 26 61
- 0.447584 1 0 ack 40 ------- 0 1.0 0.0 26 61
0.448 10
r 0.448816 0 1 tcp 1540 ------- 0 0.0 1.0 27 52
+ 0.448816 1 0 ack 40 ------- 0 1.0 0.0 27 62
- 0.448816 1 0 ack 40 ------- 0 1.0 0.0 27 62
0.449 10
0.450 10
r 0.450048 0 1 tcp 1540 ------- 0 0.0 1.0 28 53
+ 0.450048 1 0 ack 40 ------- 0 1.0 0.0 28 63
- 0.450048 1 0 ack 40 ------- 0 1.0 0.0 28 63
0.451 10
r 0.45128 0 1 tcp 1540 ------- 0 0.0 1.0 29 54
+ 0.45128 1 0 ack 40 ------- 0 1.0 0.0 29 64
- 0.45128 1 0 ack 40 ------- 0 1.0 0.0 29 64
0.452 10
r 0.452512 0 1 tcp 1540 ------- 0 0.0 1.0 30 55
+ 0.452512 1 0 ack 40 ------- 0 1.0 0.0 30 65
- 0.452512 1 0 ack 40 ------- 0 1.0 0.0 30 65
0.453 10
r 0.453744 0 1 tcp 1540 ------- 0 0.0 1.0 31 56
+ 0.453744 1 0 ack 40 ------- 0 1.0 0.0 31 66
- 0.453744 1 0 ack 40 ------- 0 1.0 0.0 31 66
0.454 10
r 0.454976 0 1 tcp 1540 ------- 0 0.0 1.0 32 57
+ 0.454976 1 0 ack 40 ------- 0 1.0 0.0 32 67
- 0.454976 1 0 ack 40 ------- 0 1.0 0.0 32 67
0.455 10
0.456 10
r 0.456208 0 1 tcp 1540 ------- 0 0.0 1.0 33 58
+ 0.456208 1 0 ack 40 ------- 0 1.0 0.0 33 68
- 0.456208 1 0 ack 40 ------- 0 1.0 0.0 33 68
0.457 10
r 0.45744 0 1 tcp 1540 ------- 0 0.0 1.0 34 59
+ 0.45744 1 0 ack 40 ------- 0 1.0 0.0 34 69
- 0.45744 1 0 ack 40 ------- 0 1.0 0.0 34 69
0.458 10
0.459 10
0.460 10
0.461 10
0.462 10
0.463 10
0.464 10
0.465 10
0.466 10
0.467 10
0.468 10
0.469 10
0.470 10
0.471 10
0.472 10
0.473 10
0.474 10
0.475 10
0.476 10
0.477 10
0.478 10
0.479 10
0.480 10
0.481 10
0.482 10
0.483 10
0.484 10
0.485 10
0.486 10
r 0.486384 1 0 ack 40 ------- 0 1.0 0.0 25 60
+ 0.486384 0 1 tcp 1540 ------- 0 0.0 1.0 35 70
- 0.486384 0 1 tcp 1540 ------- 0 0.0 1.0 35 70
0.487 10
r 0.487616 1 0 ack 40 ------- 0 1.0 0.0 26 61
+ 0.487616 0 1 tcp 1540 ------- 0 0.0 1.0 36 71
- 0.487616 0 1 tcp 1540 ------- 0 0.0 1.0 36 71
0.488 10
r 0.488848 1 0 ack 40 ------- 0 1.0 0.0 27 62
+ 0.488848 0 1 tcp 1540 ------- 0 0.0 1.0 37 72
- 0.488848 0 1 tcp 1540 ------- 0 0.0 1.0 37 72
0.489 10
0.490 10
r 0.49008 1 0 ack 40 ------- 0 1.0 0.0 28 63
+ 0.49008 0 1 tcp 1540 ------- 0 0.0 1.0 38 73
- 0.49008 0 1 tcp 1540 ------- 0 0.0 1.0 38 73
0.491 10
r 0.491312 1 0 ack 40 ------- 0 1.0 0.0 29 64
+ 0.491312 0 1 tcp 1540 ------- 0 0.0 1.0 39 74
- 0.491312 0 1 tcp 1540 ------- 0 0.0 1.0 39 74
0.492 10
r 0.492544 1 0 ack 40 ------- 0 1.0 0.0 30 65
+ 0.492544 0 1 tcp 1540 ------- 0 0.0 1.0 40 75
- 0.492544 0 1 tcp 1540 ------- 0 0.0 1.0 40 75
0.493 10
r 0.493776 1 0 ack 40 ------- 0 1.0 0.0 31 66
+ 0.493776 0 1 tcp 1540 ------- 0 0.0 1.0 41 76
- 0.493776 0 1 tcp 1540 ------- 0 0.0 1.0 41 76
0.494 10
0.495 10
r 0.495008 1 0 ack 40 ------- 0 1.0 0.0 32 67
+ 0.495008 0 1 tcp 1540 ------- 0 0.0 1.0 42 77
- 0.495008 0 1 tcp 1540 ------- 0 0.0 1.0 42 77
0.496 10
r 0.49624 1 0 ack 40 ------- 0 1.0 0.0 33 68
+ 0.49624 0 1 tcp 1540 ------- 0 0.0 1.0 43 78
- 0.49624 0 1 tcp 1540 ------- 0 0.0 1.0 43 78
0.497 10
r 0.497472 1 0 ack 40 ------- 0 1.0 0.0 34 69
+ 0.497472 0 1 tcp 1540 ------- 0 0.0 1.0 44 79
- 0.497472 0 1 tcp 1540 ------- 0 0.0 1.0 44 79
0.498 10
0.499 10
0.500 10
0.501 10
0.502 10
0.503 10
0.504 10
0.505 10
0.506 10
0.507 10
0.508 10
0.509 10
0.510 10
0.511 10
0.512 10
0.513 10
0.514 10
0.515 10
0.516 10
0.517 10
0.518 10
0.519 10
0.520 10
0.521 10
0.522 10
0.523 10
0.524 10
0.525 10
0.526 10
0.527 10
r 0.527616 0 1 tcp 1540 ------- 0 0.0 1.0 35 70
+ 0.527616 1 0 ack 40 ------- 0 1.0 0.0 35 80
- 0.527616 1 0 ack 40 ------- 0 1.0 0.0 35 80
0.528 10
r 0.528848 0 1 tcp 1540 ------- 0 0.0 1.0 36 71
+ 0.528848 1 0 ack 40 ------- 0 1.0 0.0 36 81
- 0.528848 1 0 ack 40 ------- 0 1.0 0.0 36 81
0.529 10
0.530 10
r 0.53008 0 1 tcp 1540 ------- 0 0.0 1.0 37 72
+ 0.53008 1 0 ack 40 ------- 0 1.0 0.0 37 82
- 0.53008 1 0 ack 40 ------- 0 1.0 0.0 37 82
0.531 10
r 0.531312 0 1 tcp 1540 ------- 0 0.0 1.0 38 73
+ 0.531312 1 0 ack 40 ------- 0 1.0 0.0 38 83
- 0.531312 1 0 ack 40 ------- 0 1.0 0.0 38 83
0.532 10
r 0.532544 0 1 tcp 1540 ------- 0 0.0 1.0 39 74
+ 0.532544 1 0 ack 40 ------- 0 1.0 0.0 39 84
- 0.532544 1 0 ack 40 ------- 0 1.0 0.0 39 84
0.533 10
r 0.533776 0 1 tcp 1540 ------- 0 0.0 1.0 40 75
+ 0.533776 1 0 ack 40 ------- 0 1.0 0.0 40 85
- 0.533776 1 0 ack 40 ------- 0 1.0 0.0 40 85
0.534 10
0.535 10
r 0.535008 0 1 tcp 1540 ------- 0 0.0 1.0 41 76
+ 0.535008 1 0 ack 40 ------- 0 1.0 0.0 41 86
- 0.535008 1 0 ack 40 ------- 0 1.0 0.0 41 86
0.536 10
r 0.53624 0 1 tcp 1540 ------- 0 0.0 1.0 42 77
+ 0.53624 1 0 ack 40 ------- 0 1.0 0.0 42 87
- 0.53624 1 0 ack 40 ------- 0 1.0 0.0 42 87
0.537 10
r 0.537472 0 1 tcp 1540 ------- 0 0.0 1.0 43 78
+ 0.537472 1 0 ack 40 ------- 0 1.0 0.0 43 88
- 0.537472 1 0 ack 40 ------- 0 1.0 0.0 43 88
0.538 10
r 0.538704 0 1 tcp 1540 ------- 0 0.0 1.0 44 79
+ 0.538704 1 0 ack 40 ------- 0 1.0 0.0 44 89
- 0.538704 1 0 ack 40 ------- 0 1.0 0.0 44 89
0.539 10
0.540 10
0.541 10
0.542 10
0.543 10
0.544 10
0.545 10
0.546 10
0.547 10
0.548 10
0.549 10
0.550 10
0.551 10
0.552 10
0.553 10
0.554 10
0.555 10
0.556 10
0.557 10
0.558 10
0.559 10
0.560 10
0.561 10
0.562 10
0.563 10
0.564 10
0.565 10
0.566 10
0.567 10
r 0.567648 1 0 ack 40 ------- 0 1.0 0.0 35 80
+ 0.567648 0 1 tcp 1540 ------- 0 0.0 1.0 45 90
- 0.567648 0 1 tcp 1540 ------- 0 0.0 1.0 45 90
0.568 10
r 0.56888 1 0 ack 40 ------- 0 1.0 0.0 36 81
+ 0.56888 0 1 tcp 1540 ------- 0 0.0 1.0 46 91
- 0.56888 0 1 tcp 1540 ------- 0 0.0 1.0 46 91
0.569 10
0.570 10
r 0.570112 1 0 ack 40 ------- 0 1.0 0.0 37 82
+ 0.570112 0 1 tcp 1540 ------- 0 0.0 1.0 47 92
- 0.570112 0 1 tcp 1540 ------- 0 0.0 1.0 47 92
0.571 10
r 0.571344 1 0 ack 40 ------- 0 1.0 0.0 38 83
+ 0.571344 0 1 tcp 1540 ------- 0 0.0 1.0 48 93
- 0.571344 0 1 tcp 1540 ------- 0 0.0 1.0 48 93
0.572 10
r 0.572576 1 0 ack 40 ------- 0 1.0 0.0 39 84
+ 0.572576 0 1 tcp 1540 ------- 0 0.0 1.0 49 94
- 0.572576 0 1 tcp 1540 ------- 0 0.0 1.0 49 94
0.573 10
r 0.573808 1 0 ack 40 ------- 0 1.0 0.0 40 85
+ 0.573808 0 1 tcp 1540 ------- 0 0.0 1.0 50 95
- 0.573808 0 1 tcp 1540 ------- 0 0.0 1.0 50 95
0.574 10
0.575 10
r 0.57504 1 0 ack 40 ------- 0 1.0 0.0 41 86
+ 0.57504 0 1 tcp 1540 ------- 0 0.0 1.0 51 96
- 0.57504 0 1 tcp 1540 ------- 0 0.0 1.0 51 96
0.576 10
r 0.576272 1 0 ack 40 ------- 0 1.0 0.0 42 87
+ 0.576272 0 1 tcp 1540 ------- 0 0.0 1.0 52 97
- 0.576272 0 1 tcp 1540 ------- 0 0.0 1.0 52 97
0.577 10
r 0.577504 1 0 ack 40 ------- 0 1.0 0.0 43 88
+ 0.577504 0 1 tcp 1540 ------- 0 0.0 1.0 53 98
- 0.577504 0 1 tcp 1540 ------- 0 0.0 1.0 53 98
0.578 10
r 0.578736 1 0 ack 40 ------- 0 1.0 0.0 44 89
+ 0.578736 0 1 tcp 1540 ------- 0 0.0 1.0 54 99
- 0.578736 0 1 tcp 1540 ------- 0 0.0 1.0 54 99
0.579 10
0.580 10
0.581 10
0.582 10
0.583 10
0.584 10
0.585 10
0.586 10
0.587 10
0.588 10
0.589 10
0.590 10
0.591 10
0.592 10
0.593 10
0.594 10
0.595 10
0.596 10
0.597 10
0.598 10
0.599 10
0.600 10
0.601 10
0.602 10
0.603 10
0.604 10
0.605 10
0.606 10
0.607 10
0.608 10
r 0.60888 0 1 tcp 1540 ------- 0 0.0 1.0 45 90
+ 0.60888 1 0 ack 40 ------- 0 1.0 0.0 45 100
- 0.60888 1 0 ack 40 ------- 0 1.0 0.0 45 100
0.609 10
0.610 10
r 0.610112 0 1 tcp 1540 ------- 0 0.0 1.0 46 91
+ 0.610112 1 0 ack 40 ------- 0 1.0 0.0 46 101
- 0.610112 1 0 ack 40 ------- 0 1.0 0.0 46 101
0.611 10
r 0.611344 0 1 tcp 1540 ------- 0 0.0 1.0 47 92
+ 0.611344 1 0 ack 40 ------- 0 1.0 0.0 47 102
- 0.611344 1 0 ack 40 ------- 0 1.0 0.0 47 102
0.612 10
r 0.612576 0 1 tcp 1540 ------- 0 0.0 1.0 48 93
+ 0.612576 1 0 ack 40 ------- 0 1.0 0.0 48 103
- 0.612576 1 0 ack 40 ------- 0 1.0 0.0 48 103
0.613 10
r 0.613808 0 1 tcp 1540 ------- 0 0.0 1.0 49 94
+ 0.613808 1 0 ack 40 ------- 0 1.0 0.0 49 104
- 0.613808 1 0 ack 40 ------- 0 1.0 0.0 49 104
0.614 10
0.615 10
r 0.61504 0 1 tcp 1540 ------- 0 0.0 1.0 50 95
+ 0.61504 1 0 ack 40 ------- 0 1.0 0.0 50 105
- 0.61504 1 0 ack 40 ------- 0 1.0 0.0 50 105
0.616 10
r 0.616272 0 1 tcp 1540 ------- 0 0.0 1.0 51 96
+ 0.616272 1 0 ack 40 ------- 0 1.0 0.0 51 106
- 0.616272 1 0 ack 40 ------- 0 1.0 0.0 51 106
0.617 10
r 0.617504 0 1 tcp 1540 ------- 0 0.0 1.0 52 97
+ 0.617504 1 0 ack 40 ------- 0 1.0 0.0 52 107
- 0.617504 1 0 ack 40 ------- 0 1.0 0.0 52 107
0.618 10
r 0.618736 0 1 tcp 1540 ------- 0 0.0 1.0 53 98
+ 0.618736 1 0 ack 40 ------- 0 1.0 0.0 53 108
- 0.618736 1 0 ack 40 ------- 0 1.0 0.0 53 108
0.619 10
r 0.619968 0 1 tcp 1540 ------- 0 0.0 1.0 54 99
+ 0.619968 1 0 ack 40 ------- 0 1.0 0.0 54 109
- 0.619968 1 0 ack 40 ------- 0 1.0 0.0 54 109
0.620 10
0.621 10
0.622 10
0.623 10
0.624 10
0.625 10
0.626 10
0.627 10
0.628 10
0.629 10
0.630 10
0.631 10
0.632 10
0.633 10
0.634 10
0.635 10
0.636 10
0.637 10
0.638 10
0.639 10
0.640 10
0.641 10
0.642 10
0.643 10
0.644 10
0.645 10
0.646 10
0.647 10
0.648 10
r 0.648912 1 0 ack 40 ------- 0 1.0 0.0 45 100
+ 0.648912 0 1 tcp 1540 ------- 0 0.0 1.0 55 110
- 0.648912 0 1 tcp 1540 ------- 0 0.0 1.0 55 110
0.649 10
0.650 10
r 0.650144 1 0 ack 40 ------- 0 1.0 0.0 46 101
+ 0.650144 0 1 tcp 1540 ------- 0 0.0 1.0 56 111
- 0.650144 0 1 tcp 1540 ------- 0 0.0 1.0 56 111
0.651 10
r 0.651376 1 0 ack 40 ------- 0 1.0 0.0 47 102
+ 0.651376 0 1 tcp 1540 ------- 0 0.0 1.0 57 112
- 0.651376 0 1 tcp 1540 ------- 0 0.0 1.0 57 112
0.652 10
r 0.652608 1 0 ack 40 ------- 0 1.0 0.0 48 103
+ 0.652608 0 1 tcp 1540 ------- 0 0.0 1.0 58 113
- 0.652608 0 1 tcp 1540 ------- 0 0.0 1.0 58 113
0.653 10
r 0.65384 1 0 ack 40 ------- 0 1.0 0.0 49 104
+ 0.65384 0 1 tcp 1540 ------- 0 0.0 1.0 59 114
- 0.65384 0 1 tcp 1540 ------- 0 0.0 1.0 59 114
0.654 10
0.655 10
r 0.655072 1 0 ack 40 ------- 0 1.0 0.0 50 105
+ 0.655072 0 1 tcp 1540 ------- 0 0.0 1.0 60 115
- 0.655072 0 1 tcp 1540 ------- 0 0.0 1.0 60 115
0.656 10
r 0.656304 1 0 ack 40 ------- 0 1.0 0.0 51 106
+ 0.656304 0 1 tcp 1540 ------- 0 0.0 1.0 61 116
- 0.656304 0 1 tcp 1540 ------- 0 0.0 1.0 61 116
0.657 10
r 0.657536 1 0 ack 40 ------- 0 1.0 0.0 52 107
+ 0.657536 0 1 tcp 1540 ------- 0 0.0 1.0 62 117
- 0.657536 0 1 tcp 1540 ------- 0 0.0 1.0 62 117
0.658 10
r 0.658768 1 0 ack 40 ------- 0 1.0 0.0 53 108
+ 0.658768 0 1 tcp 1540 ------- 0 0.0 1.0 63 118
- 0.658768 0 1 tcp 1540 ------- 0 0.0 1.0 63 118
0.659 10
r 0.66 1 0 ack 40 ------- 0 1.0 0.0 54 109
+ 0.66 0 1 tcp 1540 ------- 0 0.0 1.0 64 119
- 0.66 0 1 tcp 1540 ------- 0 0.0 1.0 64 119
0.660 10
0.661 10
0.662 10
0.663 10
0.664 10
0.665 10
0.666 10
0.667 10
0.668 10
0.669 10
0.670 10
0.671 10
0.672 10
0.673 10
0.674 10
0.675 10
0.676 10
0.677 10
0.678 10
0.679 10
0.680 10
0.681 10
0.682 10
0.683 10
0.684 10
0.685 10
0.686 10
0.687 10
0.688 10
0.689 10
0.690 10
r 0.690144 0 1 tcp 1540 ------- 0 0.0 1.0 55 110
+ 0.690144 1 0 ack 40 ------- 0 1.0 0.0 55 120
- 0.690144 1 0 ack 40 ------- 0 1.0 0.0 55 120
0.691 10
r 0.691376 0 1 tcp 1540 ------- 0 0.0 1.0 56 111
+ 0.691376 1 0 ack 40 ------- 0 1.0 0.0 56 121
- 0.691376 1 0 ack 40 ------- 0 1.0 0.0 56 121
0.692 10
r 0.692608 0 1 tcp 1540 ------- 0 0.0 1.0 57 112
+ 0.692608 1 0 ack 40 ------- 0 1.0 0.0 57 122
- 0.692608 1 0 ack 40 ------- 0 1.0 0.0 57 122
0.693 10
r 0.69384 0 1 tcp 1540 ------- 0 0.0 1.0 58 113
+ 0.69384 1 0 ack 40 ------- 0 1.0 0.0 58 123
- 0.69384 1 0 ack 40 ------- 0 1.0 0.0 58 123
0.694 10
0.695 10
r 0.695072 0 1 tcp 1540 ------- 0 0.0 1.0 59 114
+ 0.695072 1 0 ack 40 ------- 0 1.0 0.0 59 124
- 0.695072 1 0 ack 40 ------- 0 1.0 0.0 59 124
0.696 10
r 0.696304 0 1 tcp 1540 ------- 0 0.0 1.0 60 115
+ 0.696304 1 0 ack 40 ------- 0 1.0 0.0 60 125
- 0.696304 1 0 ack 40 ------- 0 1.0 0.0 60 125
0.697 10
r 0.697536 0 1 tcp 1540 ------- 0 0.0 1.0 61 116
+ 0.697536 1 0 ack 40 ------- 0 1.0 0.0 61 126
- 0.697536 1 0 ack 40 ------- 0 1.0 0.0 61 126
0.698 10
r 0.698768 0 1 tcp 1540 ------- 0 0.0 1.0 62 117
+ 0.698768 1 0 ack 40 ------- 0 1.0 0.0 62 127
- 0.698768 1 0 ack 40 ------- 0 1.0 0.0 62 127
0.699 10
0.700 10
r 0.7 0 1 tcp 1540 ------- 0 0.0 1.0 63 118
+ 0.7 1 0 ack 40 ------- 0 1.0 0.0 63 128
- 0.7 1 0 ack 40 ------- 0 1.0 0.0 63 128
0.701 10
r 0.701232 0 1 tcp 1540 ------- 0 0.0 1.0 64 119
+ 0.701232 1 0 ack 40 ------- 0 1.0 0.0 64 129
- 0.701232 1 0 ack 40 ------- 0 1.0 0.0 64 129
0.702 10
0.703 10
0.704 10
0.705 10
0.706 10
0.707 10
0.708 10
0.709 10
0.710 10
0.711 10
0.712 10
0.713 10
0.714 10
0.715 10
0.716 10
0.717 10
0.718 10
0.719 10
0.720 10
0.721 10
0.722 10
0.723 10
0.724 10
0.725 10
0.726 10
0.727 10
0.728 10
0.729 10
0.730 10
r 0.730176 1 0 ack 40 ------- 0 1.0 0.0 55 120
0.731 10
r 0.731408 1 0 ack 40 ------- 0 1.0 0.0 56 121
0.732 10
r 0.73264 1 0 ack 40 ------- 0 1.0 0.0 57 122
0.733 10
r 0.733872 1 0 ack 40 ------- 0 1.0 0.0 58 123
0.734 10
0.735 10
r 0.735104 1 0 ack 40 ------- 0 1.0 0.0 59 124
0.736 10
r 0.736336 1 0 ack 40 ------- 0 1.0 0.0 60 125
0.737 10
r 0.737568 1 0 ack 40 ------- 0 1.0 0.0 61 126
0.738 10
r 0.7388 1 0 ack 40 ------- 0 1.0 0.0 62 127
0.739 10
0.740 10
r 0.740032 1 0 ack 40 ------- 0 1.0 0.0 63 128
0.741 10
r 0.741264 1 0 ack 40 ------- 0 1.0 0.0 64 129
0.742 10
0.743 10
0.744 10
0.745 10
0.746 10
0.747 10
0.748 10
0.749 10
0.750 10
0.751 10
0.752 10
0.753 10
0.754 10
0.755 10
0.756 10
0.757 10
0.758 10
0.759 10
0.760 10
0.761 10
0.762 10
0.763 10
0.764 10
0.765 10
0.766 10
0.767 10
0.768 10
0.769 10
0.770 10
0.771 10
0.772 10
0.773 10
0.774 10
0.775 10
0.776 10
0.777 10
0.778 10
0.779 10
0.780 10
0.781 10
0.782 10
0.783 10
0.784 10
0.785 10
0.786 10
0.787 10
0.788 10
0.789 10
0.790 10
0.791 10
0.792 10
0.793 10
0.794 10
0.795 10
0.796 10
0.797 10
0.798 10
0.799 10
0.800 10
0.801 10
0.802 10
0.803 10
0.804 10
0.805 10
0.806 10
0.807 10
0.808 10
0.809 10
0.810 10
0.811 10
0.812 10
0.813 10
0.814 10
0.815 10
0.816 10
0.817 10
0.818 10
0.819 10
0.820 10
0.821 10
0.822 10
0.823 10
0.824 10
0.825 10
0.826 10
0.827 10
0.828 10
0.829 10
0.830 10
0.831 10
0.832 10
0.833 10
0.834 10
0.835 10
0.836 10
0.837 10
0.838 10
0.839 10
0.840 10
0.841 10
0.842 10
0.843 10
0.844 10
0.845 10
0.846 10
0.847 10
0.848 10
0.849 10
0.850 10
0.851 10
0.852 10
0.853 10
0.854 10
0.855 10
0.856 10
0.857 10
0.858 10
0.859 10
0.860 10
0.861 10
0.862 10
0.863 10
0.864 10
0.865 10
0.866 10
0.867 10
0.868 10
0.869 10
0.870 10
0.871 10
0.872 10
0.873 10
0.874 10
0.875 10
0.876 10
0.877 10
0.878 10
0.879 10
0.880 10
0.881 10
0.882 10
0.883 10
0.884 10
0.885 10
0.886 10
0.887 10
0.888 10
0.889 10
0.890 10
0.891 10
0.892 10
0.893 10
0.894 10
0.895 10
0.896 10
0.897 10
0.898 10
0.899 10
0.900 10
0.901 10
0.902 10
0.903 10
0.904 10
0.905 10
0.906 10
0.907 10
0.908 10
0.909 10
0.910 10
0.911 10
0.912 10
0.913 10
0.914 10
0.915 10
0.916 10
0.917 10
0.918 10
0.919 10
0.920 10
0.921 10
0.922 10
0.923 10
0.924 10
0.925 10
0.926 10
0.927 10
0.928 10
0.929 10
0.930 10
0.931 10
0.932 10
0.933 10
0.934 10
0.935 10
0.936 10
0.937 10
0.938 10
0.939 10
0.940 10
0.941 10
0.942 1
0.943 1
0.944 1
0.945 1
0.946 1
0.947 1
0.948 1
0.949 1
0.950 1
0.951 1
0.952 1
0.953 1
0.954 1
0.955 1
0.956 1
0.957 1
0.958 1
0.959 1
0.960 1
0.961 1
0.962 1
0.963 1
0.964 1
0.965 1
0.966 1
0.967 1
0.968 1
0.969 1
0.970 1
0.971 1
0.972 1
0.973 1
0.974 1
0.975 1
0.976 1
0.977 1
0.978 1
0.979 1
0.980 1
0.981 1
0.982 1
0.983 1
0.984 1
0.985 1
0.986 1
0.987 1
0.988 1
0.989 1
0.990 1
0.991 1
0.992 1
0.993 1
0.994 1
0.995 1
0.996 1
0.997 1
0.998 1
0.999 1
