+ 0 0 1 tcp 40 ------- 0 0.0 1.0 0 0
- 0 0 1 tcp 40 ------- 0 0.0 1.0 0 0
0.000 1
0.001 1
0.002 1
0.003 1
0.004 1
0.005 1
0.006 1
0.007 1
0.008 1
0.009 1
0.010 1
0.011 1
0.012 1
0.013 1
0.014 1
0.015 1
0.016 1
0.017 1
0.018 1
0.019 1
0.020 1
0.021 1
0.022 1
0.023 1
0.024 1
0.025 1
0.026 1
0.027 1
0.028 1
0.029 1
0.030 1
0.031 1
0.032 1
0.033 1
0.034 1
0.035 1
0.036 1
0.037 1
0.038 1
0.039 1
0.040 1
r 0.040032 0 1 tcp 40 ------- 0 0.0 1.0 0 0
+ 0.040032 1 0 ack 40 ------- 0 1.0 0.0 0 1
- 0.040032 1 0 ack 40 ------- 0 1.0 0.0 0 1
0.041 1
0.042 1
0.043 1
0.044 1
0.045 1
0.046 1
0.047 1
0.048 1
0.049 1
0.050 1
0.051 1
0.052 1
0.053 1
0.054 1
0.055 1
0.056 1
0.057 1
0.058 1
0.059 1
0.060 1
0.061 1
0.062 1
0.063 1
0.064 1
0.065 1
0.066 1
0.067 1
0.068 1
0.069 1
0.070 1
0.071 1
0.072 1
0.073 1
0.074 1
0.075 1
0.076 1
0.077 1
0.078 1
0.079 1
0.080 1
r 0.080064 1 0 ack 40 ------- 0 1.0 0.0 0 1
+ 0.080064 0 1 tcp 1540 ------- 0 0.0 1.0 1 2
- 0.080064 0 1 tcp 1540 ------- 0 0.0 1.0 1 2
+ 0.080064 0 1 tcp 1540 ------- 0 0.0 1.0 2 3
0.081 2
- 0.081296 0 1 tcp 1540 ------- 0 0.0 1.0 2 3
0.082 2
0.083 2
0.084 2
0.085 2
0.086 2
0.087 2
0.088 2
0.089 2
0.090 2
0.091 2
0.092 2
0.093 2
0.094 2
0.095 2
0.096 2
0.097 2
0.098 2
0.099 2
0.100 2
0.101 2
0.102 2
0.103 2
0.104 2
0.105 2
0.106 2
0.107 2
0.108 2
0.109 2
0.110 2
0.111 2
0.112 2
0.113 2
0.114 2
0.115 2
0.116 2
0.117 2
0.118 2
0.119 2
0.120 2
0.121 2
r 0.121296 0 1 tcp 1540 ------- 0 0.0 1.0 1 2
+ 0.121296 1 0 ack 40 ------- 0 1.0 0.0 1 4
- 0.121296 1 0 ack 40 ------- 0 1.0 0.0 1 4
0.122 2
r 0.122528 0 1 tcp 1540 ------- 0 0.0 1.0 2 3
+ 0.122528 1 0 ack 40 ------- 0 1.0 0.0 2 5
- 0.122528 1 0 ack 40 ------- 0 1.0 0.0 2 5
0.123 2
0.124 2
0.125 2
0.126 2
0.127 2
0.128 2
0.129 2
0.130 2
0.131 2
0.132 2
0.133 2
0.134 2
0.135 2
0.136 2
0.137 2
0.138 2
0.139 2
0.140 2
0.141 2
0.142 2
0.143 2
0.144 2
0.145 2
0.146 2
0.147 2
0.148 2
0.149 2
0.150 2
0.151 2
0.152 2
0.153 2
0.154 2
0.155 2
0.156 2
0.157 2
0.158 2
0.159 2
0.160 2
0.161 2
r 0.161328 1 0 ack 40 ------- 0 1.0 0.0 1 4
+ 0.161328 0 1 tcp 1540 ------- 0 0.0 1.0 3 6
- 0.161328 0 1 tcp 1540 ------- 0 0.0 1.0 3 6
+ 0.161328 0 1 tcp 1540 ------- 0 0.0 1.0 4 7
0.162 3
r 0.16256 1 0 ack 40 ------- 0 1.0 0.0 2 5
+ 0.16256 0 1 tcp 1540 ------- 0 0.0 1.0 5 8
+ 0.16256 0 1 tcp 1540 ------- 0 0.0 1.0 6 9
- 0.16256 0 1 tcp 1540 ------- 0 0.0 1.0 4 7
0.163 4
- 0.163792 0 1 tcp 1540 ------- 0 0.0 1.0 5 8
0.164 4
0.165 4
- 0.165024 0 1 tcp 1540 ------- 0 0.0 1.0 6 9
0.166 4
0.167 4
0.168 4
0.169 4
0.170 4
0.171 4
0.172 4
0.173 4
0.174 4
0.175 4
0.176 4
0.177 4
0.178 4
0.179 4
0.180 4
0.181 4
0.182 4
0.183 4
0.184 4
0.185 4
0.186 4
0.187 4
0.188 4
0.189 4
0.190 4
0.191 4
0.192 4
0.193 4
0.194 4
0.195 4
0.196 4
0.197 4
0.198 4
0.199 4
0.200 4
0.201 4
0.202 4
r 0.20256 0 1 tcp 1540 ------- 0 0.0 1.0 3 6
+ 0.20256 1 0 ack 40 ------- 0 1.0 0.0 3 10
- 0.20256 1 0 ack 40 ------- 0 1.0 0.0 3 10
0.203 4
r 0.203792 0 1 tcp 1540 ------- 0 0.0 1.0 4 7
+ 0.203792 1 0 ack 40 ------- 0 1.0 0.0 4 11
- 0.203792 1 0 ack 40 ------- 0 1.0 0.0 4 11
0.204 4
0.205 4
r 0.205024 0 1 tcp 1540 ------- 0 0.0 1.0 5 8
+ 0.205024 1 0 ack 40 ------- 0 1.0 0.0 5 12
- 0.205024 1 0 ack 40 ------- 0 1.0 0.0 5 12
0.206 4
r 0.206256 0 1 tcp 1540 ------- 0 0.0 1.0 6 9
+ 0.206256 1 0 ack 40 ------- 0 1.0 0.0 6 13
- 0.206256 1 0 ack 40 ------- 0 1.0 0.0 6 13
0.207 4
0.208 4
0.209 4
0.210 4
0.211 4
0.212 4
0.213 4
0.214 4
0.215 4
0.216 4
0.217 4
0.218 4
0.219 4
0.220 4
0.221 4
0.222 4
0.223 4
0.224 4
0.225 4
0.226 4
0.227 4
0.228 4
0.229 4
0.230 4
0.231 4
0.232 4
0.233 4
0.234 4
0.235 4
0.236 4
0.237 4
0.238 4
0.239 4
0.240 4
0.241 4
0.242 4
r 0.242592 1 0 ack 40 ------- 0 1.0 0.0 3 10
+ 0.242592 0 1 tcp 1540 ------- 0 0.0 1.0 7 14
- 0.242592 0 1 tcp 1540 ------- 0 0.0 1.0 7 14
+ 0.242592 0 1 tcp 1540 ------- 0 0.0 1.0 8 15
0.243 5
r 0.243824 1 0 ack 40 ------- 0 1.0 0.0 4 11
+ 0.243824 0 1 tcp 1540 ------- 0 0.0 1.0 9 16
+ 0.243824 0 1 tcp 1540 ------- 0 0.0 1.0 10 17
- 0.243824 0 1 tcp 1540 ------- 0 0.0 1.0 8 15
0.244 6
0.245 6
r 0.245056 1 0 ack 40 ------- 0 1.0 0.0 5 12
+ 0.245056 0 1 tcp 1540 ------- 0 0.0 1.0 11 18
+ 0.245056 0 1 tcp 1540 ------- 0 0.0 1.0 12 19
- 0.245056 0 1 tcp 1540 ------- 0 0.0 1.0 9 16
0.246 7
r 0.246288 1 0 ack 40 ------- 0 1.0 0.0 6 13
+ 0.246288 0 1 tcp 1540 ------- 0 0.0 1.0 13 20
+ 0.246288 0 1 tcp 1540 ------- 0 0.0 1.0 14 21
- 0.246288 0 1 tcp 1540 ------- 0 0.0 1.0 10 17
0.247 8
- 0.24752 0 1 tcp 1540 ------- 0 0.0 1.0 11 18
0.248 8
- 0.248752 0 1 tcp 1540 ------- 0 0.0 1.0 12 19
0.249 8
- 0.249984 0 1 tcp 1540 ------- 0 0.0 1.0 13 20
0.250 8
0.251 8
- 0.251216 0 1 tcp 1540 ------- 0 0.0 1.0 14 21
0.252 8
0.253 8
0.254 8
0.255 8
0.256 8
0.257 8
0.258 8
0.259 8
0.260 8
0.261 8
0.262 8
0.263 8
0.264 8
0.265 8
0.266 8
0.267 8
0.268 8
0.269 8
0.270 8
0.271 8
0.272 8
0.273 8
0.274 8
0.275 8
0.276 8
0.277 8
0.278 8
0.279 8
0.280 8
0.281 8
0.282 8
0.283 8
r 0.283824 0 1 tcp 1540 ------- 0 0.0 1.0 7 14
+ 0.283824 1 0 ack 40 ------- 0 1.0 0.0 7 22
- 0.283824 1 0 ack 40 ------- 0 1.0 0.0 7 22
0.284 8
0.285 8
r 0.285056 0 1 tcp 1540 ------- 0 0.0 1.0 8 15
+ 0.285056 1 0 ack 40 ------- 0 1.0 0.0 8 23
- 0.285056 1 0 ack 40 ------- 0 1.0 0.0 8 23
0.286 8
r 0.286288 0 1 tcp 1540 ------- 0 0.0 1.0 9 16
+ 0.286288 1 0 ack 40 ------- 0 1.0 0.0 9 24
- 0.286288 1 0 ack 40 ------- 0 1.0 0.0 9 24
0.287 8
r 0.28752 0 1 tcp 1540 ------- 0 0.0 1.0 10 17
+ 0.28752 1 0 ack 40 ------- 0 1.0 0.0 10 25
- 0.28752 1 0 ack 40 ------- 0 1.0 0.0 10 25
0.288 8
r 0.288752 0 1 tcp 1540 ------- 0 0.0 1.0 11 18
+ 0.288752 1 0 ack 40 ------- 0 1.0 0.0 11 26
- 0.288752 1 0 ack 40 ------- 0 1.0 0.0 11 26
0.289 8
r 0.289984 0 1 tcp 1540 ------- 0 0.0 1.0 12 19
+ 0.289984 1 0 ack 40 ------- 0 1.0 0.0 12 27
- 0.289984 1 0 ack 40 ------- 0 1.0 0.0 12 27
0.290 8
0.291 8
r 0.291216 0 1 tcp 1540 ------- 0 0.0 1.0 13 20
+ 0.291216 1 0 ack 40 ------- 0 1.0 0.0 13 28
- 0.291216 1 0 ack 40 ------- 0 1.0 0.0 13 28
0.292 8
r 0.292448 0 1 tcp 1540 ------- 0 0.0 1.0 14 21
+ 0.292448 1 0 ack 40 ------- 0 1.0 0.0 14 29
- 0.292448 1 0 ack 40 ------- 0 1.0 0.0 14 29
0.293 8
0.294 8
0.295 8
0.296 8
0.297 8
0.298 8
0.299 8
0.300 8
0.301 8
0.302 8
0.303 8
0.304 8
0.305 8
0.306 8
0.307 8
0.308 8
0.309 8
0.310 8
0.311 8
0.312 8
0.313 8
0.314 8
0.315 8
0.316 8
0.317 8
0.318 8
0.319 8
0.320 8
0.321 8
0.322 8
0.323 8
r 0.323856 1 0 ack 40 ------- 0 1.0 0.0 7 22
+ 0.323856 0 1 tcp 1540 ------- 0 0.0 1.0 15 30
- 0.323856 0 1 tcp 1540 ------- 0 0.0 1.0 15 30
+ 0.323856 0 1 tcp 1540 ------- 0 0.0 1.0 16 31
0.324 9
0.325 9
r 0.325088 1 0 ack 40 ------- 0 1.0 0.0 8 23
+ 0.325088 0 1 tcp 1540 ------- 0 0.0 1.0 17 32
+ 0.325088 0 1 tcp 1540 ------- 0 0.0 1.0 18 33
- 0.325088 0 1 tcp 1540 ------- 0 0.0 1.0 16 31
0.326 10
r 0.32632 1 0 ack 40 ------- 0 1.0 0.0 9 24
+ 0.32632 0 1 tcp 1540 ------- 0 0.0 1.0 19 34
+ 0.32632 0 1 tcp 1540 ------- 0 0.0 1.0 20 35
- 0.32632 0 1 tcp 1540 ------- 0 0.0 1.0 17 32
0.327 11
r 0.327552 1 0 ack 40 ------- 0 1.0 0.0 10 25
+ 0.327552 0 1 tcp 1540 ------- 0 0.0 1.0 21 36
+ 0.327552 0 1 tcp 1540 ------- 0 0.0 1.0 22 37
- 0.327552 0 1 tcp 1540 ------- 0 0.0 1.0 18 33
0.328 12
r 0.328784 1 0 ack 40 ------- 0 1.0 0.0 11 26
+ 0.328784 0 1 tcp 1540 ------- 0 0.0 1.0 23 38
+ 0.328784 0 1 tcp 1540 ------- 0 0.0 1.0 24 39
- 0.328784 0 1 tcp 1540 ------- 0 0.0 1.0 19 34
0.329 13
0.330 13
r 0.330016 1 0 ack 40 ------- 0 1.0 0.0 12 27
+ 0.330016 0 1 tcp 1540 ------- 0 0.0 1.0 25 40
+ 0.330016 0 1 tcp 1540 ------- 0 0.0 1.0 26 41
- 0.330016 0 1 tcp 1540 ------- 0 0.0 1.0 20 35
0.331 14
r 0.331248 1 0 ack 40 ------- 0 1.0 0.0 13 28
+ 0.331248 0 1 tcp 1540 ------- 0 0.0 1.0 27 42
+ 0.331248 0 1 tcp 1540 ------- 0 0.0 1.0 28 43
- 0.331248 0 1 tcp 1540 ------- 0 0.0 1.0 21 36
0.332 15
r 0.33248 1 0 ack 40 ------- 0 1.0 0.0 14 29
+ 0.33248 0 1 tcp 1540 ------- 0 0.0 1.0 29 44
+ 0.33248 0 1 tcp 1540 ------- 0 0.0 1.0 30 45
- 0.33248 0 1 tcp 1540 ------- 0 0.0 1.0 22 37
0.333 16
- 0.333712 0 1 tcp 1540 ------- 0 0.0 1.0 23 38
0.334 16
- 0.334944 0 1 tcp 1540 ------- 0 0.0 1.0 24 39
0.335 16
0.336 16
- 0.336176 0 1 tcp 1540 ------- 0 0.0 1.0 25 40
0.337 16
- 0.337408 0 1 tcp 1540 ------- 0 0.0 1.0 26 41
0.338 16
- 0.33864 0 1 tcp 1540 ------- 0 0.0 1.0 27 42
0.339 16
- 0.339872 0 1 tcp 1540 ------- 0 0.0 1.0 28 43
0.340 16
0.341 16
- 0.341104 0 1 tcp 1540 ------- 0 0.0 1.0 29 44
0.342 16
- 0.342336 0 1 tcp 1540 ------- 0 0.0 1.0 30 45
0.343 16
0.344 16
0.345 16
0.346 16
0.347 16
0.348 16
0.349 16
0.350 16
0.351 16
0.352 16
0.353 16
0.354 16
0.355 16
0.356 16
0.357 16
0.358 16
0.359 16
0.360 16
0.361 16
0.362 16
0.363 16
0.364 16
0.365 16
r 0.365088 0 1 tcp 1540 ------- 0 0.0 1.0 15 30
+ 0.365088 1 0 ack 40 ------- 0 1.0 0.0 15 46
- 0.365088 1 0 ack 40 ------- 0 1.0 0.0 15 46
0.366 16
r 0.36632 0 1 tcp 1540 ------- 0 0.0 1.0 16 31
+ 0.36632 1 0 ack 40 ------- 0 1.0 0.0 16 47
- 0.36632 1 0 ack 40 ------- 0 1.0 0.0 16 47
0.367 16
r 0.367552 0 1 tcp 1540 ------- 0 0.0 1.0 17 32
+ 0.367552 1 0 ack 40 ------- 0 1.0 0.0 17 48
- 0.367552 1 0 ack 40 ------- 0 1.0 0.0 17 48
0.368 16
r 0.368784 0 1 tcp 1540 ------- 0 0.0 1.0 18 33
+ 0.368784 1 0 ack 40 ------- 0 1.0 0.0 18 49
- 0.368784 1 0 ack 40 ------- 0 1.0 0.0 18 49
0.369 16
0.370 16
r 0.370016 0 1 tcp 1540 ------- 0 0.0 1.0 19 34
+ 0.370016 1 0 ack 40 ------- 0 1.0 0.0 19 50
- 0.370016 1 0 ack 40 ------- 0 1.0 0.0 19 50
0.371 16
r 0.371248 0 1 tcp 1540 ------- 0 0.0 1.0 20 35
+ 0.371248 1 0 ack 40 ------- 0 1.0 0.0 20 51
- 0.371248 1 0 ack 40 ------- 0 1.0 0.0 20 51
0.372 16
r 0.37248 0 1 tcp 1540 ------- 0 0.0 1.0 21 36
+ 0.37248 1 0 ack 40 ------- 0 1.0 0.0 21 52
- 0.37248 1 0 ack 40 ------- 0 1.0 0.0 21 52
0.373 16
r 0.373712 0 1 tcp 1540 ------- 0 0.0 1.0 22 37
+ 0.373712 1 0 ack 40 ------- 0 1.0 0.0 22 53
- 0.373712 1 0 ack 40 ------- 0 1.0 0.0 22 53
0.374 16
r 0.374944 0 1 tcp 1540 ------- 0 0.0 1.0 23 38
+ 0.374944 1 0 ack 40 ------- 0 1.0 0.0 23 54
- 0.374944 1 0 ack 40 ------- 0 1.0 0.0 23 54
0.375 16
0.376 16
r 0.376176 0 1 tcp 1540 ------- 0 0.0 1.0 24 39
+ 0.376176 1 0 ack 40 ------- 0 1.0 0.0 24 55
- 0.376176 1 0 ack 40 ------- 0 1.0 0.0 24 55
0.377 16
r 0.377408 0 1 tcp 1540 ------- 0 0.0 1.0 25 40
+ 0.377408 1 0 ack 40 ------- 0 1.0 0.0 25 56
- 0.377408 1 0 ack 40 ------- 0 1.0 0.0 25 56
0.378 16
r 0.37864 0 1 tcp 1540 ------- 0 0.0 1.0 26 41
+ 0.37864 1 0 ack 40 ------- 0 1.0 0.0 26 57
- 0.37864 1 0 ack 40 ------- 0 1.0 0.0 26 57
0.379 16
r 0.379872 0 1 tcp 1540 ------- 0 0.0 1.0 27 42
+ 0.379872 1 0 ack 40 ------- 0 1.0 0.0 27 58
- 0.379872 1 0 ack 40 ------- 0 1.0 0.0 27 58
0.380 16
0.381 16
r 0.381104 0 1 tcp 1540 ------- 0 0.0 1.0 28 43
+ 0.381104 1 0 ack 40 ------- 0 1.0 0.0 28 59
- 0.381104 1 0 ack 40 ------- 0 1.0 0.0 28 59
0.382 16
r 0.382336 0 1 tcp 1540 ------- 0 0.0 1.0 29 44
+ 0.382336 1 0 ack 40 ------- 0 1.0 0.0 29 60
- 0.382336 1 0 ack 40 ------- 0 1.0 0.0 29 60
0.383 16
r 0.383568 0 1 tcp 1540 ------- 0 0.0 1.0 30 45
+ 0.383568 1 0 ack 40 ------- 0 1.0 0.0 30 61
- 0.383568 1 0 ack 40 ------- 0 1.0 0.0 30 61
0.384 16
0.385 16
0.386 16
0.387 16
0.388 16
0.389 16
0.390 16
0.391 16
0.392 16
0.393 16
0.394 16
0.395 16
0.396 16
0.397 16
0.398 16
0.399 16
0.400 16
0.401 16
0.402 16
0.403 16
0.404 16
0.405 16
r 0.40512 1 0 ack 40 ------- 0 1.0 0.0 15 46
+ 0.40512 0 1 tcp 1540 ------- 0 0.0 1.0 31 62
- 0.40512 0 1 tcp 1540 ------- 0 0.0 1.0 31 62
+ 0.40512 0 1 tcp 1540 ------- 0 0.0 1.0 32 63
0.406 17
r 0.406352 1 0 ack 40 ------- 0 1.0 0.0 16 47
+ 0.406352 0 1 tcp 1540 ------- 0 0.0 1.0 33 64
+ 0.406352 0 1 tcp 1540 ------- 0 0.0 1.0 34 65
- 0.406352 0 1 tcp 1540 ------- 0 0.0 1.0 32 63
0.407 18
r 0.407584 1 0 ack 40 ------- 0 1.0 0.0 17 48
+ 0.407584 0 1 tcp 1540 ------- 0 0.0 1.0 35 66
+ 0.407584 0 1 tcp 1540 ------- 0 0.0 1.0 36 67
- 0.407584 0 1 tcp 1540 ------- 0 0.0 1.0 33 64
0.408 19
r 0.408816 1 0 ack 40 ------- 0 1.0 0.0 18 49
+ 0.408816 0 1 tcp 1540 ------- 0 0.0 1.0 37 68
+ 0.408816 0 1 tcp 1540 ------- 0 0.0 1.0 38 69
- 0.408816 0 1 tcp 1540 ------- 0 0.0 1.0 34 65
0.409 20
0.410 20
r 0.410048 1 0 ack 40 ------- 0 1.0 0.0 19 50
+ 0.410048 0 1 tcp 1540 ------- 0 0.0 1.0 39 70
- 0.410048 0 1 tcp 1540 ------- 0 0.0 1.0 35 66
0.411 20.05
r 0.41128 1 0 ack 40 ------- 0 1.0 0.0 20 51
+ 0.41128 0 1 tcp 1540 ------- 0 0.0 1.0 40 71
- 0.41128 0 1 tcp 1540 ------- 0 0.0 1.0 36 67
0.412 20.0999
r 0.412512 1 0 ack 40 ------- 0 1.0 0.0 21 52
+ 0.412512 0 1 tcp 1540 ------- 0 0.0 1.0 41 72
- 0.412512 0 1 tcp 1540 ------- 0 0.0 1.0 37 68
0.413 20.1496
r 0.413744 1 0 ack 40 ------- 0 1.0 0.0 22 53
+ 0.413744 0 1 tcp 1540 ------- 0 0.0 1.0 42 73
- 0.413744 0 1 tcp 1540 ------- 0 0.0 1.0 38 69
0.414 20.1993
r 0.414976 1 0 ack 40 ------- 0 1.0 0.0 23 54
+ 0.414976 0 1 tcp 1540 ------- 0 0.0 1.0 43 74
- 0.414976 0 1 tcp 1540 ------- 0 0.0 1.0 39 70
0.415 20.2488
0.416 20.2488
r 0.416208 1 0 ack 40 ------- 0 1.0 0.0 24 55
+ 0.416208 0 1 tcp 1540 ------- 0 0.0 1.0 44 75
- 0.416208 0 1 tcp 1540 ------- 0 0.0 1.0 40 71
0.417 20.2981
r 0.41744 1 0 ack 40 ------- 0 1.0 0.0 25 56
+ 0.41744 0 1 tcp 1540 ------- 0 0.0 1.0 45 76
- 0.41744 0 1 tcp 1540 ------- 0 0.0 1.0 41 72
0.418 20.3474
r 0.418672 1 0 ack 40 ------- 0 1.0 0.0 26 57
+ 0.418672 0 1 tcp 1540 ------- 0 0.0 1.0 46 77
- 0.418672 0 1 tcp 1540 ------- 0 0.0 1.0 42 73
0.419 20.3966
r 0.419904 1 0 ack 40 ------- 0 1.0 0.0 27 58
+ 0.419904 0 1 tcp 1540 ------- 0 0.0 1.0 47 78
- 0.419904 0 1 tcp 1540 ------- 0 0.0 1.0 43 74
0.420 20.4456
0.421 20.4456
r 0.421136 1 0 ack 40 ------- 0 1.0 0.0 28 59
+ 0.421136 0 1 tcp 1540 ------- 0 0.0 1.0 48 79
- 0.421136 0 1 tcp 1540 ------- 0 0.0 1.0 44 75
0.422 20.4945
r 0.422368 1 0 ack 40 ------- 0 1.0 0.0 29 60
+ 0.422368 0 1 tcp 1540 ------- 0 0.0 1.0 49 80
- 0.422368 0 1 tcp 1540 ------- 0 0.0 1.0 45 76
0.423 20.5433
r 0.4236 1 0 ack 40 ------- 0 1.0 0.0 30 61
+ 0.4236 0 1 tcp 1540 ------- 0 0.0 1.0 50 81
- 0.4236 0 1 tcp 1540 ------- 0 0.0 1.0 46 77
0.424 20.592
- 0.424832 0 1 tcp 1540 ------- 0 0.0 1.0 47 78
0.425 20.592
0.426 20.592
- 0.426064 0 1 tcp 1540 ------- 0 0.0 1.0 48 79
0.427 20.592
- 0.427296 0 1 tcp 1540 ------- 0 0.0 1.0 49 80
0.428 20.592
- 0.428528 0 1 tcp 1540 ------- 0 0.0 1.0 50 81
0.429 20.592
0.430 20.592
0.431 20.592
0.432 20.592
0.433 20.592
0.434 20.592
0.435 20.592
0.436 20.592
0.437 20.592
0.438 20.592
0.439 20.592
0.440 20.592
0.441 20.592
0.442 20.592
0.443 20.592
0.444 20.592
0.445 20.592
0.446 20.592
r 0.446352 0 1 tcp 1540 ------- 0 0.0 1.0 31 62
+ 0.446352 1 0 ack 40 ------- 0 1.0 0.0 31 82
- 0.446352 1 0 ack 40 ------- 0 1.0 0.0 31 82
0.447 20.592
r 0.447584 0 1 tcp 1540 ------- 0 0.0 1.0 32 63
+ 0.447584 1 0 ack 40 ------- 0 1.0 0.0 32 83
- 0.447584 1 0 ack 40 ------- 0 1.0 0.0 32 83
0.448 20.592
r 0.448816 0 1 tcp 1540 ------- 0 0.0 1.0 33 64
+ 0.448816 1 0 ack 40 ------- 0 1.0 0.0 33 84
- 0.448816 1 0 ack 40 ------- 0 1.0 0.0 33 84
0.449 20.592
0.450 20.592
r 0.450048 0 1 tcp 1540 ------- 0 0.0 1.0 34 65
+ 0.450048 1 0 ack 40 ------- 0 1.0 0.0 34 85
- 0.450048 1 0 ack 40 ------- 0 1.0 0.0 34 85
0.451 20.592
r 0.45128 0 1 tcp 1540 ------- 0 0.0 1.0 35 66
+ 0.45128 1 0 ack 40 ------- 0 1.0 0.0 35 86
- 0.45128 1 0 ack 40 ------- 0 1.0 0.0 35 86
0.452 20.592
r 0.452512 0 1 tcp 1540 ------- 0 0.0 1.0 36 67
+ 0.452512 1 0 ack 40 ------- 0 1.0 0.0 36 87
- 0.452512 1 0 ack 40 ------- 0 1.0 0.0 36 87
0.453 20.592
r 0.453744 0 1 tcp 1540 ------- 0 0.0 1.0 37 68
+ 0.453744 1 0 ack 40 ------- 0 1.0 0.0 37 88
- 0.453744 1 0 ack 40 ------- 0 1.0 0.0 37 88
0.454 20.592
r 0.454976 0 1 tcp 1540 ------- 0 0.0 1.0 38 69
+ 0.454976 1 0 ack 40 ------- 0 1.0 0.0 38 89
- 0.454976 1 0 ack 40 ------- 0 1.0 0.0 38 89
0.455 20.592
0.456 20.592
r 0.456208 0 1 tcp 1540 ------- 0 0.0 1.0 39 70
+ 0.456208 1 0 ack 40 ------- 0 1.0 0.0 39 90
- 0.456208 1 0 ack 40 ------- 0 1.0 0.0 39 90
0.457 20.592
r 0.45744 0 1 tcp 1540 ------- 0 0.0 1.0 40 71
+ 0.45744 1 0 ack 40 ------- 0 1.0 0.0 40 91
- 0.45744 1 0 ack 40 ------- 0 1.0 0.0 40 91
0.458 20.592
r 0.458672 0 1 tcp 1540 ------- 0 0.0 1.0 41 72
+ 0.458672 1 0 ack 40 ------- 0 1.0 0.0 41 92
- 0.458672 1 0 ack 40 ------- 0 1.0 0.0 41 92
0.459 20.592
r 0.459904 0 1 tcp 1540 ------- 0 0.0 1.0 42 73
+ 0.459904 1 0 ack 40 ------- 0 1.0 0.0 42 93
- 0.459904 1 0 ack 40 ------- 0 1.0 0.0 42 93
0.460 20.592
0.461 20.592
r 0.461136 0 1 tcp 1540 ------- 0 0.0 1.0 43 74
+ 0.461136 1 0 ack 40 ------- 0 1.0 0.0 43 94
- 0.461136 1 0 ack 40 ------- 0 1.0 0.0 43 94
0.462 20.592
r 0.462368 0 1 tcp 1540 ------- 0 0.0 1.0 44 75
+ 0.462368 1 0 ack 40 ------- 0 1.0 0.0 44 95
- 0.462368 1 0 ack 40 ------- 0 1.0 0.0 44 95
0.463 20.592
r 0.4636 0 1 tcp 1540 ------- 0 0.0 1.0 45 76
+ 0.4636 1 0 ack 40 ------- 0 1.0 0.0 45 96
- 0.4636 1 0 ack 40 ------- 0 1.0 0.0 45 96
0.464 20.592
r 0.464832 0 1 tcp 1540 ------- 0 0.0 1.0 46 77
+ 0.464832 1 0 ack 40 ------- 0 1.0 0.0 46 97
- 0.464832 1 0 ack 40 ------- 0 1.0 0.0 46 97
0.465 20.592
0.466 20.592
r 0.466064 0 1 tcp 1540 ------- 0 0.0 1.0 47 78
+ 0.466064 1 0 ack 40 ------- 0 1.0 0.0 47 98
- 0.466064 1 0 ack 40 ------- 0 1.0 0.0 47 98
0.467 20.592
r 0.467296 0 1 tcp 1540 ------- 0 0.0 1.0 48 79
+ 0.467296 1 0 ack 40 ------- 0 1.0 0.0 48 99
- 0.467296 1 0 ack 40 ------- 0 1.0 0.0 48 99
0.468 20.592
r 0.468528 0 1 tcp 1540 ------- 0 0.0 1.0 49 80
+ 0.468528 1 0 ack 40 ------- 0 1.0 0.0 49 100
- 0.468528 1 0 ack 40 ------- 0 1.0 0.0 49 100
0.469 20.592
r 0.46976 0 1 tcp 1540 ------- 0 0.0 1.0 50 81
+ 0.46976 1 0 ack 40 ------- 0 1.0 0.0 50 101
- 0.46976 1 0 ack 40 ------- 0 1.0 0.0 50 101
0.470 20.592
0.471 20.592
0.472 20.592
0.473 20.592
0.474 20.592
0.475 20.592
0.476 20.592
0.477 20.592
0.478 20.592
0.479 20.592
0.480 20.592
0.481 20.592
0.482 20.592
0.483 20.592
0.484 20.592
0.485 20.592
0.486 20.592
r 0.486384 1 0 ack 40 ------- 0 1.0 0.0 31 82
+ 0.486384 0 1 tcp 1540 ------- 0 0.0 1.0 51 102
- 0.486384 0 1 tcp 1540 ------- 0 0.0 1.0 51 102
0.487 20.6405
r 0.487616 1 0 ack 40 ------- 0 1.0 0.0 32 83
+ 0.487616 0 1 tcp 1540 ------- 0 0.0 1.0 52 103
- 0.487616 0 1 tcp 1540 ------- 0 0.0 1.0 52 103
0.488 20.689
r 0.488848 1 0 ack 40 ------- 0 1.0 0.0 33 84
+ 0.488848 0 1 tcp 1540 ------- 0 0.0 1.0 53 104
- 0.488848 0 1 tcp 1540 ------- 0 0.0 1.0 53 104
0.489 20.7373
0.490 20.7373
r 0.49008 1 0 ack 40 ------- 0 1.0 0.0 34 85
+ 0.49008 0 1 tcp 1540 ------- 0 0.0 1.0 54 105
- 0.49008 0 1 tcp 1540 ------- 0 0.0 1.0 54 105
0.491 20.7855
r 0.491312 1 0 ack 40 ------- 0 1.0 0.0 35 86
+ 0.491312 0 1 tcp 1540 ------- 0 0.0 1.0 55 106
- 0.491312 0 1 tcp 1540 ------- 0 0.0 1.0 55 106
0.492 20.8336
r 0.492544 1 0 ack 40 ------- 0 1.0 0.0 36 87
+ 0.492544 0 1 tcp 1540 ------- 0 0.0 1.0 56 107
- 0.492544 0 1 tcp 1540 ------- 0 0.0 1.0 56 107
0.493 20.8816
r 0.493776 1 0 ack 40 ------- 0 1.0 0.0 37 88
+ 0.493776 0 1 tcp 1540 ------- 0 0.0 1.0 57 108
- 0.493776 0 1 tcp 1540 ------- 0 0.0 1.0 57 108
0.494 20.9295
0.495 20.9295
r 0.495008 1 0 ack 40 ------- 0 1.0 0.0 38 89
+ 0.495008 0 1 tcp 1540 ------- 0 0.0 1.0 58 109
- 0.495008 0 1 tcp 1540 ------- 0 0.0 1.0 58 109
0.496 20.9773
r 0.49624 1 0 ack 40 ------- 0 1.0 0.0 39 90
+ 0.49624 0 1 tcp 1540 ------- 0 0.0 1.0 59 110
- 0.49624 0 1 tcp 1540 ------- 0 0.0 1.0 59 110
0.497 21.025
r 0.497472 1 0 ack 40 ------- 0 1.0 0.0 40 91
+ 0.497472 0 1 tcp 1540 ------- 0 0.0 1.0 60 111
- 0.497472 0 1 tcp 1540 ------- 0 0.0 1.0 60 111
0.498 21.0725
r 0.498704 1 0 ack 40 ------- 0 1.0 0.0 41 92
+ 0.498704 0 1 tcp 1540 ------- 0 0.0 1.0 61 112
- 0.498704 0 1 tcp 1540 ------- 0 0.0 1.0 61 112
0.499 21.12
r 0.499936 1 0 ack 40 ------- 0 1.0 0.0 42 93
+ 0.499936 0 1 tcp 1540 ------- 0 0.0 1.0 62 113
- 0.499936 0 1 tcp 1540 ------- 0 0.0 1.0 62 113
0.500 21.1674
0.501 21.1674
r 0.501168 1 0 ack 40 ------- 0 1.0 0.0 43 94
+ 0.501168 0 1 tcp 1540 ------- 0 0.0 1.0 63 114
- 0.501168 0 1 tcp 1540 ------- 0 0.0 1.0 63 114
0.502 21.2146
r 0.5024 1 0 ack 40 ------- 0 1.0 0.0 44 95
+ 0.5024 0 1 tcp 1540 ------- 0 0.0 1.0 64 115
- 0.5024 0 1 tcp 1540 ------- 0 0.0 1.0 64 115
0.503 21.2617
r 0.503632 1 0 ack 40 ------- 0 1.0 0.0 45 96
+ 0.503632 0 1 tcp 1540 ------- 0 0.0 1.0 65 116
- 0.503632 0 1 tcp 1540 ------- 0 0.0 1.0 65 116
0.504 21.3088
r 0.504864 1 0 ack 40 ------- 0 1.0 0.0 46 97
+ 0.504864 0 1 tcp 1540 ------- 0 0.0 1.0 66 117
- 0.504864 0 1 tcp 1540 ------- 0 0.0 1.0 66 117
0.505 21.3557
0.506 21.3557
r 0.506096 1 0 ack 40 ------- 0 1.0 0.0 47 98
+ 0.506096 0 1 tcp 1540 ------- 0 0.0 1.0 67 118
- 0.506096 0 1 tcp 1540 ------- 0 0.0 1.0 67 118
0.507 21.4025
r 0.507328 1 0 ack 40 ------- 0 1.0 0.0 48 99
+ 0.507328 0 1 tcp 1540 ------- 0 0.0 1.0 68 119
- 0.507328 0 1 tcp 1540 ------- 0 0.0 1.0 68 119
0.508 21.4492
r 0.50856 1 0 ack 40 ------- 0 1.0 0.0 49 100
+ 0.50856 0 1 tcp 1540 ------- 0 0.0 1.0 69 120
- 0.50856 0 1 tcp 1540 ------- 0 0.0 1.0 69 120
0.509 21.4959
r 0.509792 1 0 ack 40 ------- 0 1.0 0.0 50 101
+ 0.509792 0 1 tcp 1540 ------- 0 0.0 1.0 70 121
- 0.509792 0 1 tcp 1540 ------- 0 0.0 1.0 70 121
0.510 21.5424
0.511 21.5424
0.512 21.5424
0.513 21.5424
0.514 21.5424
0.515 21.5424
0.516 21.5424
0.517 21.5424
0.518 21.5424
0.519 21.5424
0.520 21.5424
0.521 21.5424
0.522 21.5424
0.523 21.5424
0.524 21.5424
0.525 21.5424
0.526 21.5424
0.527 21.5424
r 0.527616 0 1 tcp 1540 ------- 0 0.0 1.0 51 102
+ 0.527616 1 0 ack 40 ------- 0 1.0 0.0 51 122
- 0.527616 1 0 ack 40 ------- 0 1.0 0.0 51 122
0.528 21.5424
r 0.528848 0 1 tcp 1540 ------- 0 0.0 1.0 52 103
+ 0.528848 1 0 ack 40 ------- 0 1.0 0.0 52 123
- 0.528848 1 0 ack 40 ------- 0 1.0 0.0 52 123
0.529 21.5424
0.530 21.5424
r 0.53008 0 1 tcp 1540 ------- 0 0.0 1.0 53 104
+ 0.53008 1 0 ack 40 ------- 0 1.0 0.0 53 124
- 0.53008 1 0 ack 40 ------- 0 1.0 0.0 53 124
0.531 21.5424
r 0.531312 0 1 tcp 1540 ------- 0 0.0 1.0 54 105
+ 0.531312 1 0 ack 40 ------- 0 1.0 0.0 54 125
- 0.531312 1 0 ack 40 ------- 0 1.0 0.0 54 125
0.532 21.5424
r 0.532544 0 1 tcp 1540 ------- 0 0.0 1.0 55 106
+ 0.532544 1 0 ack 40 ------- 0 1.0 0.0 55 126
- 0.532544 1 0 ack 40 ------- 0 1.0 0.0 55 126
0.533 21.5424
r 0.533776 0 1 tcp 1540 ------- 0 0.0 1.0 56 107
+ 0.533776 1 0 ack 40 ------- 0 1.0 0.0 56 127
- 0.533776 1 0 ack 40 ------- 0 1.0 0.0 56 127
0.534 21.5424
0.535 21.5424
r 0.535008 0 1 tcp 1540 ------- 0 0.0 1.0 57 108
+ 0.535008 1 0 ack 40 ------- 0 1.0 0.0 57 128
- 0.535008 1 0 ack 40 ------- 0 1.0 0.0 57 128
0.536 21.5424
r 0.53624 0 1 tcp 1540 ------- 0 0.0 1.0 58 109
+ 0.53624 1 0 ack 40 ------- 0 1.0 0.0 58 129
- 0.53624 1 0 ack 40 ------- 0 1.0 0.0 58 129
0.537 21.5424
r 0.537472 0 1 tcp 1540 ------- 0 0.0 1.0 59 110
+ 0.537472 1 0 ack 40 ------- 0 1.0 0.0 59 130
- 0.537472 1 0 ack 40 ------- 0 1.0 0.0 59 130
0.538 21.5424
r 0.538704 0 1 tcp 1540 ------- 0 0.0 1.0 60 111
+ 0.538704 1 0 ack 40 ------- 0 1.0 0.0 60 131
- 0.538704 1 0 ack 40 ------- 0 1.0 0.0 60 131
0.539 21.5424
r 0.539936 0 1 tcp 1540 ------- 0 0.0 1.0 61 112
+ 0.539936 1 0 ack 40 ------- 0 1.0 0.0 61 132
- 0.539936 1 0 ack 40 ------- 0 1.0 0.0 61 132
0.540 21.5424
0.541 21.5424
r 0.541168 0 1 tcp 1540 ------- 0 0.0 1.0 62 113
+ 0.541168 1 0 ack 40 ------- 0 1.0 0.0 62 133
- 0.541168 1 0 ack 40 ------- 0 1.0 0.0 62 133
0.542 21.5424
r 0.5424 0 1 tcp 1540 ------- 0 0.0 1.0 63 114
+ 0.5424 1 0 ack 40 ------- 0 1.0 0.0 63 134
- 0.5424 1 0 ack 40 ------- 0 1.0 0.0 63 134
0.543 21.5424
r 0.543632 0 1 tcp 1540 ------- 0 0.0 1.0 64 115
+ 0.543632 1 0 ack 40 ------- 0 1.0 0.0 64 135
- 0.543632 1 0 ack 40 ------- 0 1.0 0.0 64 135
0.544 21.5424
r 0.544864 0 1 tcp 1540 ------- 0 0.0 1.0 65 116
+ 0.544864 1 0 ack 40 ------- 0 1.0 0.0 65 136
- 0.544864 1 0 ack 40 ------- 0 1.0 0.0 65 136
0.545 21.5424
0.546 21.5424
r 0.546096 0 1 tcp 1540 ------- 0 0.0 1.0 66 117
+ 0.546096 1 0 ack 40 ------- 0 1.0 0.0 66 137
- 0.546096 1 0 ack 40 ------- 0 1.0 0.0 66 137
0.547 21.5424
r 0.547328 0 1 tcp 1540 ------- 0 0.0 1.0 67 118
+ 0.547328 1 0 ack 40 ------- 0 1.0 0.0 67 138
- 0.547328 1 0 ack 40 ------- 0 1.0 0.0 67 138
0.548 21.5424
r 0.54856 0 1 tcp 1540 ------- 0 0.0 1.0 68 119
+ 0.54856 1 0 ack 40 ------- 0 1.0 0.0 68 139
- 0.54856 1 0 ack 40 ------- 0 1.0 0.0 68 139
0.549 21.5424
r 0.549792 0 1 tcp 1540 ------- 0 0.0 1.0 69 120
+ 0.549792 1 0 ack 40 ------- 0 1.0 0.0 69 140
- 0.549792 1 0 ack 40 ------- 0 1.0 0.0 69 140
0.550 21.5424
0.551 21.5424
r 0.551024 0 1 tcp 1540 ------- 0 0.0 1.0 70 121
+ 0.551024 1 0 ack 40 ------- 0 1.0 0.0 70 141
- 0.551024 1 0 ack 40 ------- 0 1.0 0.0 70 141
0.552 21.5424
0.553 21.5424
0.554 21.5424
0.555 21.5424
0.556 21.5424
0.557 21.5424
0.558 21.5424
0.559 21.5424
0.560 21.5424
0.561 21.5424
0.562 21.5424
0.563 21.5424
0.564 21.5424
0.565 21.5424
0.566 21.5424
0.567 21.5424
r 0.567648 1 0 ack 40 ------- 0 1.0 0.0 51 122
+ 0.567648 0 1 tcp 1540 ------- 0 0.0 1.0 71 142
- 0.567648 0 1 tcp 1540 ------- 0 0.0 1.0 71 142
0.568 21.5888
r 0.56888 1 0 ack 40 ------- 0 1.0 0.0 52 123
+ 0.56888 0 1 tcp 1540 ------- 0 0.0 1.0 72 143
- 0.56888 0 1 tcp 1540 ------- 0 0.0 1.0 72 143
0.569 21.6351
0.570 21.6351
r 0.570112 1 0 ack 40 ------- 0 1.0 0.0 53 124
+ 0.570112 0 1 tcp 1540 ------- 0 0.0 1.0 73 144
- 0.570112 0 1 tcp 1540 ------- 0 0.0 1.0 73 144
0.571 21.6813
r 0.571344 1 0 ack 40 ------- 0 1.0 0.0 54 125
+ 0.571344 0 1 tcp 1540 ------- 0 0.0 1.0 74 145
- 0.571344 0 1 tcp 1540 ------- 0 0.0 1.0 74 145
0.572 21.7275
r 0.572576 1 0 ack 40 ------- 0 1.0 0.0 55 126
+ 0.572576 0 1 tcp 1540 ------- 0 0.0 1.0 75 146
- 0.572576 0 1 tcp 1540 ------- 0 0.0 1.0 75 146
0.573 21.7735
r 0.573808 1 0 ack 40 ------- 0 1.0 0.0 56 127
+ 0.573808 0 1 tcp 1540 ------- 0 0.0 1.0 76 147
- 0.573808 0 1 tcp 1540 ------- 0 0.0 1.0 76 147
0.574 21.8194
0.575 21.8194
r 0.57504 1 0 ack 40 ------- 0 1.0 0.0 57 128
+ 0.57504 0 1 tcp 1540 ------- 0 0.0 1.0 77 148
- 0.57504 0 1 tcp 1540 ------- 0 0.0 1.0 77 148
0.576 21.8653
r 0.576272 1 0 ack 40 ------- 0 1.0 0.0 58 129
+ 0.576272 0 1 tcp 1540 ------- 0 0.0 1.0 78 149
- 0.576272 0 1 tcp 1540 ------- 0 0.0 1.0 78 149
0.577 21.911
r 0.577504 1 0 ack 40 ------- 0 1.0 0.0 59 130
+ 0.577504 0 1 tcp 1540 ------- 0 0.0 1.0 79 150
- 0.577504 0 1 tcp 1540 ------- 0 0.0 1.0 79 150
0.578 21.9566
r 0.578736 1 0 ack 40 ------- 0 1.0 0.0 60 131
+ 0.578736 0 1 tcp 1540 ------- 0 0.0 1.0 80 151
- 0.578736 0 1 tcp 1540 ------- 0 0.0 1.0 80 151
0.579 22.0022
r 0.579968 1 0 ack 40 ------- 0 1.0 0.0 61 132
+ 0.579968 0 1 tcp 1540 ------- 0 0.0 1.0 81 152
- 0.579968 0 1 tcp 1540 ------- 0 0.0 1.0 81 152
0.580 22.0476
0.581 22.0476
r 0.5812 1 0 ack 40 ------- 0 1.0 0.0 62 133
+ 0.5812 0 1 tcp 1540 ------- 0 0.0 1.0 82 153
- 0.5812 0 1 tcp 1540 ------- 0 0.0 1.0 82 153
0.582 22.093
r 0.582432 1 0 ack 40 ------- 0 1.0 0.0 63 134
+ 0.582432 0 1 tcp 1540 ------- 0 0.0 1.0 83 154
- 0.582432 0 1 tcp 1540 ------- 0 0.0 1.0 83 154
0.583 22.1382
r 0.583664 1 0 ack 40 ------- 0 1.0 0.0 64 135
+ 0.583664 0 1 tcp 1540 ------- 0 0.0 1.0 84 155
- 0.583664 0 1 tcp 1540 ------- 0 0.0 1.0 84 155
0.584 22.1834
r 0.584896 1 0 ack 40 ------- 0 1.0 0.0 65 136
+ 0.584896 0 1 tcp 1540 ------- 0 0.0 1.0 85 156
- 0.584896 0 1 tcp 1540 ------- 0 0.0 1.0 85 156
0.585 22.2285
0.586 22.2285
r 0.586128 1 0 ack 40 ------- 0 1.0 0.0 66 137
+ 0.586128 0 1 tcp 1540 ------- 0 0.0 1.0 86 157
- 0.586128 0 1 tcp 1540 ------- 0 0.0 1.0 86 157
0.587 22.2735
r 0.58736 1 0 ack 40 ------- 0 1.0 0.0 67 138
+ 0.58736 0 1 tcp 1540 ------- 0 0.0 1.0 87 158
- 0.58736 0 1 tcp 1540 ------- 0 0.0 1.0 87 158
0.588 22.3184
r 0.588592 1 0 ack 40 ------- 0 1.0 0.0 68 139
+ 0.588592 0 1 tcp 1540 ------- 0 0.0 1.0 88 159
- 0.588592 0 1 tcp 1540 ------- 0 0.0 1.0 88 159
0.589 22.3632
r 0.589824 1 0 ack 40 ------- 0 1.0 0.0 69 140
+ 0.589824 0 1 tcp 1540 ------- 0 0.0 1.0 89 160
- 0.589824 0 1 tcp 1540 ------- 0 0.0 1.0 89 160
0.590 22.4079
0.591 22.4079
r 0.591056 1 0 ack 40 ------- 0 1.0 0.0 70 141
+ 0.591056 0 1 tcp 1540 ------- 0 0.0 1.0 90 161
- 0.591056 0 1 tcp 1540 ------- 0 0.0 1.0 90 161
0.592 22.4525
0.593 22.4525
0.594 22.4525
0.595 22.4525
0.596 22.4525
0.597 22.4525
0.598 22.4525
0.599 22.4525
0.600 22.4525
0.601 22.4525
0.602 22.4525
0.603 22.4525
0.604 22.4525
0.605 22.4525
0.606 22.4525
0.607 22.4525
0.608 22.4525
r 0.60888 0 1 tcp 1540 ------- 0 0.0 1.0 71 142
+ 0.60888 1 0 ack 40 ------- 0 1.0 0.0 71 162
- 0.60888 1 0 ack 40 ------- 0 1.0 0.0 71 162
0.609 22.4525
0.610 22.4525
r 0.610112 0 1 tcp 1540 ------- 0 0.0 1.0 72 143
+ 0.610112 1 0 ack 40 ------- 0 1.0 0.0 72 163
- 0.610112 1 0 ack 40 ------- 0 1.0 0.0 72 163
0.611 22.4525
r 0.611344 0 1 tcp 1540 ------- 0 0.0 1.0 73 144
+ 0.611344 1 0 ack 40 ------- 0 1.0 0.0 73 164
- 0.611344 1 0 ack 40 ------- 0 1.0 0.0 73 164
0.612 22.4525
r 0.612576 0 1 tcp 1540 ------- 0 0.0 1.0 74 145
+ 0.612576 1 0 ack 40 ------- 0 1.0 0.0 74 165
- 0.612576 1 0 ack 40 ------- 0 1.0 0.0 74 165
0.613 22.4525
r 0.613808 0 1 tcp 1540 ------- 0 0.0 1.0 75 146
+ 0.613808 1 0 ack 40 ------- 0 1.0 0.0 75 166
- 0.613808 1 0 ack 40 ------- 0 1.0 0.0 75 166
0.614 22.4525
0.615 22.4525
r 0.61504 0 1 tcp 1540 ------- 0 0.0 1.0 76 147
+ 0.61504 1 0 ack 40 ------- 0 1.0 0.0 76 167
- 0.61504 1 0 ack 40 ------- 0 1.0 0.0 76 167
0.616 22.4525
r 0.616272 0 1 tcp 1540 ------- 0 0.0 1.0 77 148
+ 0.616272 1 0 ack 40 ------- 0 1.0 0.0 77 168
- 0.616272 1 0 ack 40 ------- 0 1.0 0.0 77 168
0.617 22.4525
r 0.617504 0 1 tcp 1540 ------- 0 0.0 1.0 78 149
+ 0.617504 1 0 ack 40 ------- 0 1.0 0.0 78 169
- 0.617504 1 0 ack 40 ------- 0 1.0 0.0 78 169
0.618 22.4525
r 0.618736 0 1 tcp 1540 ------- 0 0.0 1.0 79 150
+ 0.618736 1 0 ack 40 ------- 0 1.0 0.0 79 170
- 0.618736 1 0 ack 40 ------- 0 1.0 0.0 79 170
0.619 22.4525
r 0.619968 0 1 tcp 1540 ------- 0 0.0 1.0 80 151
+ 0.619968 1 0 ack 40 ------- 0 1.0 0.0 80 171
- 0.619968 1 0 ack 40 ------- 0 1.0 0.0 80 171
0.620 22.4525
0.621 22.4525
r 0.6212 0 1 tcp 1540 ------- 0 0.0 1.0 81 152
+ 0.6212 1 0 ack 40 ------- 0 1.0 0.0 81 172
- 0.6212 1 0 ack 40 ------- 0 1.0 0.0 81 172
0.622 22.4525
r 0.622432 0 1 tcp 1540 ------- 0 0.0 1.0 82 153
+ 0.622432 1 0 ack 40 ------- 0 1.0 0.0 82 173
- 0.622432 1 0 ack 40 ------- 0 1.0 0.0 82 173
0.623 22.4525
r 0.623664 0 1 tcp 1540 ------- 0 0.0 1.0 83 154
+ 0.623664 1 0 ack 40 ------- 0 1.0 0.0 83 174