+ 0 0 1 tcp 40 ------- 0 0.0 1.0 0 0
- 0 0 1 tcp 40 ------- 0 0.0 1.0 0 0
0.000 1
0.001 1
0.002 1
0.003 1
0.004 1
0.005 1
0.006 1
0.007 1
0.008 1
0.009 1
0.010 1
r 0.010032 0 1 tcp 40 ------- 0 0.0 1.0 0 0
+ 0.010032 1 0 ack 40 ------- 0 1.0 0.0 0 1
- 0.010032 1 0 ack 40 ------- 0 1.0 0.0 0 1
0.011 1
0.012 1
0.013 1
0.014 1
0.015 1
0.016 1
0.017 1
0.018 1
0.019 1
0.020 1
r 0.020064 1 0 ack 40 ------- 0 1.0 0.0 0 1
+ 0.020064 0 1 tcp 1540 ------- 0 0.0 1.0 1 2
- 0.020064 0 1 tcp 1540 ------- 0 0.0 1.0 1 2
+ 0.020064 0 1 tcp 1540 ------- 0 0.0 1.0 2 3
0.021 2
- 0.021296 0 1 tcp 1540 ------- 0 0.0 1.0 2 3
0.022 2
0.023 2
0.024 2
0.025 2
0.026 2
0.027 2
0.028 2
0.029 2
0.030 2
0.031 2
r 0.031296 0 1 tcp 1540 ------- 0 0.0 1.0 1 2
+ 0.031296 1 0 ack 40 ------- 0 1.0 0.0 1 4
- 0.031296 1 0 ack 40 ------- 0 1.0 0.0 1 4
0.032 2
r 0.032528 0 1 tcp 1540 ------- 0 0.0 1.0 2 3
+ 0.032528 1 0 ack 40 ------- 0 1.0 0.0 2 5
- 0.032528 1 0 ack 40 ------- 0 1.0 0.0 2 5
0.033 2
0.034 2
0.035 2
0.036 2
0.037 2
0.038 2
0.039 2
0.040 2
0.041 2
r 0.041328 1 0 ack 40 ------- 0 1.0 0.0 1 4
+ 0.041328 0 1 tcp 1540 ------- 0 0.0 1.0 3 6
- 0.041328 0 1 tcp 1540 ------- 0 0.0 1.0 3 6
+ 0.041328 0 1 tcp 1540 ------- 0 0.0 1.0 4 7
0.042 3
r 0.04256 1 0 ack 40 ------- 0 1.0 0.0 2 5
+ 0.04256 0 1 tcp 1540 ------- 0 0.0 1.0 5 8
+ 0.04256 0 1 tcp 1540 ------- 0 0.0 1.0 6 9
- 0.04256 0 1 tcp 1540 ------- 0 0.0 1.0 4 7
0.043 4
- 0.043792 0 1 tcp 1540 ------- 0 0.0 1.0 5 8
0.044 4
0.045 4
- 0.045024 0 1 tcp 1540 ------- 0 0.0 1.0 6 9
0.046 4
0.047 4
0.048 4
0.049 4
0.050 4
0.051 4
0.052 4
r 0.05256 0 1 tcp 1540 ------- 0 0.0 1.0 3 6
+ 0.05256 1 0 ack 40 ------- 0 1.0 0.0 3 10
- 0.05256 1 0 ack 40 ------- 0 1.0 0.0 3 10
0.053 4
r 0.053792 0 1 tcp 1540 ------- 0 0.0 1.0 4 7
+ 0.053792 1 0 ack 40 ------- 0 1.0 0.0 4 11
- 0.053792 1 0 ack 40 ------- 0 1.0 0.0 4 11
0.054 4
0.055 4
r 0.055024 0 1 tcp 1540 ------- 0 0.0 1.0 5 8
+ 0.055024 1 0 ack 40 ------- 0 1.0 0.0 5 12
- 0.055024 1 0 ack 40 ------- 0 1.0 0.0 5 12
0.056 4
r 0.056256 0 1 tcp 1540 ------- 0 0.0 1.0 6 9
+ 0.056256 1 0 ack 40 ------- 0 1.0 0.0 6 13
- 0.056256 1 0 ack 40 ------- 0 1.0 0.0 6 13
0.057 4
0.058 4
0.059 4
0.060 4
0.061 4
0.062 4
r 0.062592 1 0 ack 40 ------- 0 1.0 0.0 3 10
+ 0.062592 0 1 tcp 1540 ------- 0 0.0 1.0 7 14
- 0.062592 0 1 tcp 1540 ------- 0 0.0 1.0 7 14
+ 0.062592 0 1 tcp 1540 ------- 0 0.0 1.0 8 15
0.063 5
r 0.063824 1 0 ack 40 ------- 0 1.0 0.0 4 11
+ 0.063824 0 1 tcp 1540 ------- 0 0.0 1.0 9 16
+ 0.063824 0 1 tcp 1540 ------- 0 0.0 1.0 10 17
- 0.063824 0 1 tcp 1540 ------- 0 0.0 1.0 8 15
0.064 6
0.065 6
r 0.065056 1 0 ack 40 ------- 0 1.0 0.0 5 12
+ 0.065056 0 1 tcp 1540 ------- 0 0.0 1.0 11 18
+ 0.065056 0 1 tcp 1540 ------- 0 0.0 1.0 12 19
- 0.065056 0 1 tcp 1540 ------- 0 0.0 1.0 9 16
0.066 7
r 0.066288 1 0 ack 40 ------- 0 1.0 0.0 6 13
+ 0.066288 0 1 tcp 1540 ------- 0 0.0 1.0 13 20
+ 0.066288 0 1 tcp 1540 ------- 0 0.0 1.0 14 21
- 0.066288 0 1 tcp 1540 ------- 0 0.0 1.0 10 17
0.067 8
- 0.06752 0 1 tcp 1540 ------- 0 0.0 1.0 11 18
0.068 8
- 0.068752 0 1 tcp 1540 ------- 0 0.0 1.0 12 19
0.069 8
- 0.069984 0 1 tcp 1540 ------- 0 0.0 1.0 13 20
0.070 8
0.071 8
- 0.071216 0 1 tcp 1540 ------- 0 0.0 1.0 14 21
0.072 8
0.073 8
r 0.073824 0 1 tcp 1540 ------- 0 0.0 1.0 7 14
+ 0.073824 1 0 ack 40 ------- 0 1.0 0.0 7 22
- 0.073824 1 0 ack 40 ------- 0 1.0 0.0 7 22
0.074 8
0.075 8
r 0.075056 0 1 tcp 1540 ------- 0 0.0 1.0 8 15
+ 0.075056 1 0 ack 40 ------- 0 1.0 0.0 8 23
- 0.075056 1 0 ack 40 ------- 0 1.0 0.0 8 23
0.076 8
r 0.076288 0 1 tcp 1540 ------- 0 0.0 1.0 9 16
+ 0.076288 1 0 ack 40 ------- 0 1.0 0.0 9 24
- 0.076288 1 0 ack 40 ------- 0 1.0 0.0 9 24
0.077 8
r 0.07752 0 1 tcp 1540 ------- 0 0.0 1.0 10 17
+ 0.07752 1 0 ack 40 ------- 0 1.0 0.0 10 25
- 0.07752 1 0 ack 40 ------- 0 1.0 0.0 10 25
0.078 8
r 0.078752 0 1 tcp 1540 ------- 0 0.0 1.0 11 18
+ 0.078752 1 0 ack 40 ------- 0 1.0 0.0 11 26
- 0.078752 1 0 ack 40 ------- 0 1.0 0.0 11 26
0.079 8
r 0.079984 0 1 tcp 1540 ------- 0 0.0 1.0 12 19
+ 0.079984 1 0 ack 40 ------- 0 1.0 0.0 12 27
- 0.079984 1 0 ack 40 ------- 0 1.0 0.0 12 27
0.080 8
0.081 8
r 0.081216 0 1 tcp 1540 ------- 0 0.0 1.0 13 20
+ 0.081216 1 0 ack 40 ------- 0 1.0 0.0 13 28
- 0.081216 1 0 ack 40 ------- 0 1.0 0.0 13 28
0.082 8
r 0.082448 0 1 tcp 1540 ------- 0 0.0 1.0 14 21
+ 0.082448 1 0 ack 40 ------- 0 1.0 0.0 14 29
- 0.082448 1 0 ack 40 ------- 0 1.0 0.0 14 29
0.083 8
r 0.083856 1 0 ack 40 ------- 0 1.0 0.0 7 22
+ 0.083856 0 1 tcp 1540 ------- 0 0.0 1.0 15 30
- 0.083856 0 1 tcp 1540 ------- 0 0.0 1.0 15 30
+ 0.083856 0 1 tcp 1540 ------- 0 0.0 1.0 16 31
0.084 9
0.085 9
r 0.085088 1 0 ack 40 ------- 0 1.0 0.0 8 23
+ 0.085088 0 1 tcp 1540 ------- 0 0.0 1.0 17 32
+ 0.085088 0 1 tcp 1540 ------- 0 0.0 1.0 18 33
- 0.085088 0 1 tcp 1540 ------- 0 0.0 1.0 16 31
0.086 10
r 0.08632 1 0 ack 40 ------- 0 1.0 0.0 9 24
+ 0.08632 0 1 tcp 1540 ------- 0 0.0 1.0 19 34
+ 0.08632 0 1 tcp 1540 ------- 0 0.0 1.0 20 35
- 0.08632 0 1 tcp 1540 ------- 0 0.0 1.0 17 32
0.087 11
r 0.087552 1 0 ack 40 ------- 0 1.0 0.0 10 25
+ 0.087552 0 1 tcp 1540 ------- 0 0.0 1.0 21 36
+ 0.087552 0 1 tcp 1540 ------- 0 0.0 1.0 22 37
- 0.087552 0 1 tcp 1540 ------- 0 0.0 1.0 18 33
0.088 12
r 0.088784 1 0 ack 40 ------- 0 1.0 0.0 11 26
+ 0.088784 0 1 tcp 1540 ------- 0 0.0 1.0 23 38
+ 0.088784 0 1 tcp 1540 ------- 0 0.0 1.0 24 39
- 0.088784 0 1 tcp 1540 ------- 0 0.0 1.0 19 34
0.089 13
0.090 13
r 0.090016 1 0 ack 40 ------- 0 1.0 0.0 12 27
+ 0.090016 0 1 tcp 1540 ------- 0 0.0 1.0 25 40
+ 0.090016 0 1 tcp 1540 ------- 0 0.0 1.0 26 41
- 0.090016 0 1 tcp 1540 ------- 0 0.0 1.0 20 35
0.091 14
r 0.091248 1 0 ack 40 ------- 0 1.0 0.0 13 28
+ 0.091248 0 1 tcp 1540 ------- 0 0.0 1.0 27 42
+ 0.091248 0 1 tcp 1540 ------- 0 0.0 1.0 28 43
- 0.091248 0 1 tcp 1540 ------- 0 0.0 1.0 21 36
0.092 15
r 0.09248 1 0 ack 40 ------- 0 1.0 0.0 14 29
+ 0.09248 0 1 tcp 1540 ------- 0 0.0 1.0 29 44
+ 0.09248 0 1 tcp 1540 ------- 0 0.0 1.0 30 45
- 0.09248 0 1 tcp 1540 ------- 0 0.0 1.0 22 37
0.093 16
- 0.093712 0 1 tcp 1540 ------- 0 0.0 1.0 23 38
0.094 16
- 0.094944 0 1 tcp 1540 ------- 0 0.0 1.0 24 39
0.095 16
r 0.095088 0 1 tcp 1540 ------- 0 0.0 1.0 15 30
+ 0.095088 1 0 ack 40 ------- 0 1.0 0.0 15 46
- 0.095088 1 0 ack 40 ------- 0 1.0 0.0 15 46
0.096 16
- 0.096176 0 1 tcp 1540 ------- 0 0.0 1.0 25 40
r 0.09632 0 1 tcp 1540 ------- 0 0.0 1.0 16 31
+ 0.09632 1 0 ack 40 ------- 0 1.0 0.0 16 47
- 0.09632 1 0 ack 40 ------- 0 1.0 0.0 16 47
0.097 16
- 0.097408 0 1 tcp 1540 ------- 0 0.0 1.0 26 41
r 0.097552 0 1 tcp 1540 ------- 0 0.0 1.0 17 32
+ 0.097552 1 0 ack 40 ------- 0 1.0 0.0 17 48
- 0.097552 1 0 ack 40 ------- 0 1.0 0.0 17 48
0.098 16
- 0.09864 0 1 tcp 1540 ------- 0 0.0 1.0 27 42
r 0.098784 0 1 tcp 1540 ------- 0 0.0 1.0 18 33
+ 0.098784 1 0 ack 40 ------- 0 1.0 0.0 18 49
- 0.098784 1 0 ack 40 ------- 0 1.0 0.0 18 49
0.099 16
- 0.099872 0 1 tcp 1540 ------- 0 0.0 1.0 28 43
0.100 16
r 0.100016 0 1 tcp 1540 ------- 0 0.0 1.0 19 34
+ 0.100016 1 0 ack 40 ------- 0 1.0 0.0 19 50
- 0.100016 1 0 ack 40 ------- 0 1.0 0.0 19 50
0.101 16
- 0.101104 0 1 tcp 1540 ------- 0 0.0 1.0 29 44
r 0.101248 0 1 tcp 1540 ------- 0 0.0 1.0 20 35
+ 0.101248 1 0 ack 40 ------- 0 1.0 0.0 20 51
- 0.101248 1 0 ack 40 ------- 0 1.0 0.0 20 51
0.102 16
- 0.102336 0 1 tcp 1540 ------- 0 0.0 1.0 30 45
r 0.10248 0 1 tcp 1540 ------- 0 0.0 1.0 21 36
+ 0.10248 1 0 ack 40 ------- 0 1.0 0.0 21 52
- 0.10248 1 0 ack 40 ------- 0 1.0 0.0 21 52
0.103 16
r 0.103712 0 1 tcp 1540 ------- 0 0.0 1.0 22 37
+ 0.103712 1 0 ack 40 ------- 0 1.0 0.0 22 53
- 0.103712 1 0 ack 40 ------- 0 1.0 0.0 22 53
0.104 16
r 0.104944 0 1 tcp 1540 ------- 0 0.0 1.0 23 38
+ 0.104944 1 0 ack 40 ------- 0 1.0 0.0 23 54
- 0.104944 1 0 ack 40 ------- 0 1.0 0.0 23 54
0.105 16
r 0.10512 1 0 ack 40 ------- 0 1.0 0.0 15 46
+ 0.10512 0 1 tcp 1540 ------- 0 0.0 1.0 31 55
- 0.10512 0 1 tcp 1540 ------- 0 0.0 1.0 31 55
+ 0.10512 0 1 tcp 1540 ------- 0 0.0 1.0 32 56
0.106 17
r 0.106176 0 1 tcp 1540 ------- 0 0.0 1.0 24 39
+ 0.106176 1 0 ack 40 ------- 0 1.0 0.0 24 57
- 0.106176 1 0 ack 40 ------- 0 1.0 0.0 24 57
r 0.106352 1 0 ack 40 ------- 0 1.0 0.0 16 47
+ 0.106352 0 1 tcp 1540 ------- 0 0.0 1.0 33 58
+ 0.106352 0 1 tcp 1540 ------- 0 0.0 1.0 34 59
- 0.106352 0 1 tcp 1540 ------- 0 0.0 1.0 32 56
0.107 18
r 0.107408 0 1 tcp 1540 ------- 0 0.0 1.0 25 40
+ 0.107408 1 0 ack 40 ------- 0 1.0 0.0 25 60
- 0.107408 1 0 ack 40 ------- 0 1.0 0.0 25 60
r 0.107584 1 0 ack 40 ------- 0 1.0 0.0 17 48
+ 0.107584 0 1 tcp 1540 ------- 0 0.0 1.0 35 61
+ 0.107584 0 1 tcp 1540 ------- 0 0.0 1.0 36 62
- 0.107584 0 1 tcp 1540 ------- 0 0.0 1.0 33 58
0.108 19
r 0.10864 0 1 tcp 1540 ------- 0 0.0 1.0 26 41
+ 0.10864 1 0 ack 40 ------- 0 1.0 0.0 26 63
- 0.10864 1 0 ack 40 ------- 0 1.0 0.0 26 63
r 0.108816 1 0 ack 40 ------- 0 1.0 0.0 18 49
+ 0.108816 0 1 tcp 1540 ------- 0 0.0 1.0 37 64
+ 0.108816 0 1 tcp 1540 ------- 0 0.0 1.0 38 65
- 0.108816 0 1 tcp 1540 ------- 0 0.0 1.0 34 59
0.109 20
r 0.109872 0 1 tcp 1540 ------- 0 0.0 1.0 27 42
+ 0.109872 1 0 ack 40 ------- 0 1.0 0.0 27 66
- 0.109872 1 0 ack 40 ------- 0 1.0 0.0 27 66
0.110 20
r 0.110048 1 0 ack 40 ------- 0 1.0 0.0 19 50
+ 0.110048 0 1 tcp 1540 ------- 0 0.0 1.0 39 67
- 0.110048 0 1 tcp 1540 ------- 0 0.0 1.0 35 61
0.111 20.05
r 0.111104 0 1 tcp 1540 ------- 0 0.0 1.0 28 43
+ 0.111104 1 0 ack 40 ------- 0 1.0 0.0 28 68
- 0.111104 1 0 ack 40 ------- 0 1.0 0.0 28 68
r 0.11128 1 0 ack 40 ------- 0 1.0 0.0 20 51
+ 0.11128 0 1 tcp 1540 ------- 0 0.0 1.0 40 69
- 0.11128 0 1 tcp 1540 ------- 0 0.0 1.0 36 62
0.112 20.0999
r 0.112336 0 1 tcp 1540 ------- 0 0.0 1.0 29 44
+ 0.112336 1 0 ack 40 ------- 0 1.0 0.0 29 70
- 0.112336 1 0 ack 40 ------- 0 1.0 0.0 29 70
r 0.112512 1 0 ack 40 ------- 0 1.0 0.0 21 52
+ 0.112512 0 1 tcp 1540 ------- 0 0.0 1.0 41 71
- 0.112512 0 1 tcp 1540 ------- 0 0.0 1.0 37 64
0.113 20.1496
r 0.113568 0 1 tcp 1540 ------- 0 0.0 1.0 30 45
+ 0.113568 1 0 ack 40 ------- 0 1.0 0.0 30 72
- 0.113568 1 0 ack 40 ------- 0 1.0 0.0 30 72
r 0.113744 1 0 ack 40 ------- 0 1.0 0.0 22 53
+ 0.113744 0 1 tcp 1540 ------- 0 0.0 1.0 42 73
- 0.113744 0 1 tcp 1540 ------- 0 0.0 1.0 38 65
0.114 20.1993
r 0.114976 1 0 ack 40 ------- 0 1.0 0.0 23 54
+ 0.114976 0 1 tcp 1540 ------- 0 0.0 1.0 43 74
- 0.114976 0 1 tcp 1540 ------- 0 0.0 1.0 39 67
0.115 20.2488
0.116 20.2488
r 0.116208 1 0 ack 40 ------- 0 1.0 0.0 24 57
+ 0.116208 0 1 tcp 1540 ------- 0 0.0 1.0 44 75
- 0.116208 0 1 tcp 1540 ------- 0 0.0 1.0 40 69
r 0.116352 0 1 tcp 1540 ------- 0 0.0 1.0 31 55
+ 0.116352 1 0 ack 40 ------- 0 1.0 0.0 31 76
- 0.116352 1 0 ack 40 ------- 0 1.0 0.0 31 76
0.117 20.2981
r 0.11744 1 0 ack 40 ------- 0 1.0 0.0 25 60
+ 0.11744 0 1 tcp 1540 ------- 0 0.0 1.0 45 77
- 0.11744 0 1 tcp 1540 ------- 0 0.0 1.0 41 71
r 0.117584 0 1 tcp 1540 ------- 0 0.0 1.0 32 56
+ 0.117584 1 0 ack 40 ------- 0 1.0 0.0 32 78
- 0.117584 1 0 ack 40 ------- 0 1.0 0.0 32 78
0.118 20.3474
r 0.118672 1 0 ack 40 ------- 0 1.0 0.0 26 63
+ 0.118672 0 1 tcp 1540 ------- 0 0.0 1.0 46 79
- 0.118672 0 1 tcp 1540 ------- 0 0.0 1.0 42 73
r 0.118816 0 1 tcp 1540 ------- 0 0.0 1.0 33 58
+ 0.118816 1 0 ack 40 ------- 0 1.0 0.0 33 80
- 0.118816 1 0 ack 40 ------- 0 1.0 0.0 33 80
0.119 20.3966
r 0.119904 1 0 ack 40 ------- 0 1.0 0.0 27 66
+ 0.119904 0 1 tcp 1540 ------- 0 0.0 1.0 47 81
- 0.119904 0 1 tcp 1540 ------- 0 0.0 1.0 43 74
0.120 20.4456
r 0.120048 0 1 tcp 1540 ------- 0 0.0 1.0 34 59
+ 0.120048 1 0 ack 40 ------- 0 1.0 0.0 34 82
- 0.120048 1 0 ack 40 ------- 0 1.0 0.0 34 82
0.121 20.4456
r 0.121136 1 0 ack 40 ------- 0 1.0 0.0 28 68
+ 0.121136 0 1 tcp 1540 ------- 0 0.0 1.0 48 83
- 0.121136 0 1 tcp 1540 ------- 0 0.0 1.0 44 75
r 0.12128 0 1 tcp 1540 ------- 0 0.0 1.0 35 61
+ 0.12128 1 0 ack 40 ------- 0 1.0 0.0 35 84
- 0.12128 1 0 ack 40 ------- 0 1.0 0.0 35 84
0.122 20.4945
r 0.122368 1 0 ack 40 ------- 0 1.0 0.0 29 70
+ 0.122368 0 1 tcp 1540 ------- 0 0.0 1.0 49 85
- 0.122368 0 1 tcp 1540 ------- 0 0.0 1.0 45 77
r 0.122512 0 1 tcp 1540 ------- 0 0.0 1.0 36 62
+ 0.122512 1 0 ack 40 ------- 0 1.0 0.0 36 86
- 0.122512 1 0 ack 40 ------- 0 1.0 0.0 36 86
0.123 20.5433
r 0.1236 1 0 ack 40 ------- 0 1.0 0.0 30 72
+ 0.1236 0 1 tcp 1540 ------- 0 0.0 1.0 50 87
- 0.1236 0 1 tcp 1540 ------- 0 0.0 1.0 46 79
r 0.123744 0 1 tcp 1540 ------- 0 0.0 1.0 37 64
+ 0.123744 1 0 ack 40 ------- 0 1.0 0.0 37 88
- 0.123744 1 0 ack 40 ------- 0 1.0 0.0 37 88
0.124 20.592
- 0.124832 0 1 tcp 1540 ------- 0 0.0 1.0 47 81
r 0.124976 0 1 tcp 1540 ------- 0 0.0 1.0 38 65
+ 0.124976 1 0 ack 40 ------- 0 1.0 0.0 38 89
- 0.124976 1 0 ack 40 ------- 0 1.0 0.0 38 89
0.125 20.592
0.126 20.592
- 0.126064 0 1 tcp 1540 ------- 0 0.0 1.0 48 83
r 0.126208 0 1 tcp 1540 ------- 0 0.0 1.0 39 67
+ 0.126208 1 0 ack 40 ------- 0 1.0 0.0 39 90
- 0.126208 1 0 ack 40 ------- 0 1.0 0.0 39 90
r 0.126384 1 0 ack 40 ------- 0 1.0 0.0 31 76
+ 0.126384 0 1 tcp 1540 ------- 0 0.0 1.0 51 91
0.127 20.6405
- 0.127296 0 1 tcp 1540 ------- 0 0.0 1.0 49 85
r 0.12744 0 1 tcp 1540 ------- 0 0.0 1.0 40 69
+ 0.12744 1 0 ack 40 ------- 0 1.0 0.0 40 92
- 0.12744 1 0 ack 40 ------- 0 1.0 0.0 40 92
r 0.127616 1 0 ack 40 ------- 0 1.0 0.0 32 78
+ 0.127616 0 1 tcp 1540 ------- 0 0.0 1.0 52 93
0.128 20.689
- 0.128528 0 1 tcp 1540 ------- 0 0.0 1.0 50 87
r 0.128672 0 1 tcp 1540 ------- 0 0.0 1.0 41 71
+ 0.128672 1 0 ack 40 ------- 0 1.0 0.0 41 94
- 0.128672 1 0 ack 40 ------- 0 1.0 0.0 41 94
r 0.128848 1 0 ack 40 ------- 0 1.0 0.0 33 80
+ 0.128848 0 1 tcp 1540 ------- 0 0.0 1.0 53 95
0.129 20.7373
- 0.12976 0 1 tcp 1540 ------- 0 0.0 1.0 51 91
r 0.129904 0 1 tcp 1540 ------- 0 0.0 1.0 42 73
+ 0.129904 1 0 ack 40 ------- 0 1.0 0.0 42 96
- 0.129904 1 0 ack 40 ------- 0 1.0 0.0 42 96
0.130 20.7373
r 0.13008 1 0 ack 40 ------- 0 1.0 0.0 34 82
+ 0.13008 0 1 tcp 1540 ------- 0 0.0 1.0 54 97
- 0.130992 0 1 tcp 1540 ------- 0 0.0 1.0 52 93
0.131 20.7855
r 0.131136 0 1 tcp 1540 ------- 0 0.0 1.0 43 74
+ 0.131136 1 0 ack 40 ------- 0 1.0 0.0 43 98
- 0.131136 1 0 ack 40 ------- 0 1.0 0.0 43 98
r 0.131312 1 0 ack 40 ------- 0 1.0 0.0 35 84
+ 0.131312 0 1 tcp 1540 ------- 0 0.0 1.0 55 99
0.132 20.8336
- 0.132224 0 1 tcp 1540 ------- 0 0.0 1.0 53 95
r 0.132368 0 1 tcp 1540 ------- 0 0.0 1.0 44 75
+ 0.132368 1 0 ack 40 ------- 0 1.0 0.0 44 100
- 0.132368 1 0 ack 40 ------- 0 1.0 0.0 44 100
r 0.132544 1 0 ack 40 ------- 0 1.0 0.0 36 86
+ 0.132544 0 1 tcp 1540 ------- 0 0.0 1.0 56 101
0.133 20.8816
- 0.133456 0 1 tcp 1540 ------- 0 0.0 1.0 54 97
r 0.1336 0 1 tcp 1540 ------- 0 0.0 1.0 45 77
+ 0.1336 1 0 ack 40 ------- 0 1.0 0.0 45 102
- 0.1336 1 0 ack 40 ------- 0 1.0 0.0 45 102
r 0.133776 1 0 ack 40 ------- 0 1.0 0.0 37 88
+ 0.133776 0 1 tcp 1540 ------- 0 0.0 1.0 57 103
0.134 20.9295
- 0.134688 0 1 tcp 1540 ------- 0 0.0 1.0 55 99
r 0.134832 0 1 tcp 1540 ------- 0 0.0 1.0 46 79
+ 0.134832 1 0 ack 40 ------- 0 1.0 0.0 46 104
- 0.134832 1 0 ack 40 ------- 0 1.0 0.0 46 104
0.135 20.9295
r 0.135008 1 0 ack 40 ------- 0 1.0 0.0 38 89
+ 0.135008 0 1 tcp 1540 ------- 0 0.0 1.0 58 105
- 0.13592 0 1 tcp 1540 ------- 0 0.0 1.0 56 101
0.136 20.9773
r 0.136064 0 1 tcp 1540 ------- 0 0.0 1.0 47 81
+ 0.136064 1 0 ack 40 ------- 0 1.0 0.0 47 106
- 0.136064 1 0 ack 40 ------- 0 1.0 0.0 47 106
r 0.13624 1 0 ack 40 ------- 0 1.0 0.0 39 90
+ 0.13624 0 1 tcp 1540 ------- 0 0.0 1.0 59 107
0.137 21.025
- 0.137152 0 1 tcp 1540 ------- 0 0.0 1.0 57 103
r 0.137296 0 1 tcp 1540 ------- 0 0.0 1.0 48 83
+ 0.137296 1 0 ack 40 ------- 0 1.0 0.0 48 108
- 0.137296 1 0 ack 40 ------- 0 1.0 0.0 48 108
r 0.137472 1 0 ack 40 ------- 0 1.0 0.0 40 92
+ 0.137472 0 1 tcp 1540 ------- 0 0.0 1.0 60 109
0.138 21.0725
- 0.138384 0 1 tcp 1540 ------- 0 0.0 1.0 58 105
r 0.138528 0 1 tcp 1540 ------- 0 0.0 1.0 49 85
+ 0.138528 1 0 ack 40 ------- 0 1.0 0.0 49 110
- 0.138528 1 0 ack 40 ------- 0 1.0 0.0 49 110
r 0.138704 1 0 ack 40 ------- 0 1.0 0.0 41 94
+ 0.138704 0 1 tcp 1540 ------- 0 0.0 1.0 61 111
0.139 21.12
- 0.139616 0 1 tcp 1540 ------- 0 0.0 1.0 59 107
r 0.13976 0 1 tcp 1540 ------- 0 0.0 1.0 50 87
+ 0.13976 1 0 ack 40 ------- 0 1.0 0.0 50 112
- 0.13976 1 0 ack 40 ------- 0 1.0 0.0 50 112
r 0.139936 1 0 ack 40 ------- 0 1.0 0.0 42 96
+ 0.139936 0 1 tcp 1540 ------- 0 0.0 1.0 62 113
0.140 21.1674
- 0.140848 0 1 tcp 1540 ------- 0 0.0 1.0 60 109
r 0.140992 0 1 tcp 1540 ------- 0 0.0 1.0 51 91
+ 0.140992 1 0 ack 40 ------- 0 1.0 0.0 51 114
- 0.140992 1 0 ack 40 ------- 0 1.0 0.0 51 114
0.141 21.1674
r 0.141168 1 0 ack 40 ------- 0 1.0 0.0 43 98
+ 0.141168 0 1 tcp 1540 ------- 0 0.0 1.0 63 115
0.142 21.2146
- 0.14208 0 1 tcp 1540 ------- 0 0.0 1.0 61 111
r 0.142224 0 1 tcp 1540 ------- 0 0.0 1.0 52 93
+ 0.142224 1 0 ack 40 ------- 0 1.0 0.0 52 116
- 0.142224 1 0 ack 40 ------- 0 1.0 0.0 52 116
r 0.1424 1 0 ack 40 ------- 0 1.0 0.0 44 100
+ 0.1424 0 1 tcp 1540 ------- 0 0.0 1.0 64 117
0.143 21.2617
- 0.143312 0 1 tcp 1540 ------- 0 0.0 1.0 62 113
r 0.143456 0 1 tcp 1540 ------- 0 0.0 1.0 53 95
+ 0.143456 1 0 ack 40 ------- 0 1.0 0.0 53 118
- 0.143456 1 0 ack 40 ------- 0 1.0 0.0 53 118
r 0.143632 1 0 ack 40 ------- 0 1.0 0.0 45 102
+ 0.143632 0 1 tcp 1540 ------- 0 0.0 1.0 65 119
0.144 21.3088
- 0.144544 0 1 tcp 1540 ------- 0 0.0 1.0 63 115
r 0.144688 0 1 tcp 1540 ------- 0 0.0 1.0 54 97
+ 0.144688 1 0 ack 40 ------- 0 1.0 0.0 54 120
- 0.144688 1 0 ack 40 ------- 0 1.0 0.0 54 120
r 0.144864 1 0 ack 40 ------- 0 1.0 0.0 46 104
+ 0.144864 0 1 tcp 1540 ------- 0 0.0 1.0 66 121
0.145 21.3557
- 0.145776 0 1 tcp 1540 ------- 0 0.0 1.0 64 117
r 0.14592 0 1 tcp 1540 ------- 0 0.0 1.0 55 99
+ 0.14592 1 0 ack 40 ------- 0 1.0 0.0 55 122
- 0.14592 1 0 ack 40 ------- 0 1.0 0.0 55 122
0.146 21.3557
r 0.146096 1 0 ack 40 ------- 0 1.0 0.0 47 106
+ 0.146096 0 1 tcp 1540 ------- 0 0.0 1.0 67 123
0.147 21.4025
- 0.147008 0 1 tcp 1540 ------- 0 0.0 1.0 65 119
r 0.147152 0 1 tcp 1540 ------- 0 0.0 1.0 56 101
+ 0.147152 1 0 ack 40 ------- 0 1.0 0.0 56 124
- 0.147152 1 0 ack 40 ------- 0 1.0 0.0 56 124
r 0.147328 1 0 ack 40 ------- 0 1.0 0.0 48 108
+ 0.147328 0 1 tcp 1540 ------- 0 0.0 1.0 68 125
0.148 21.4492
- 0.14824 0 1 tcp 1540 ------- 0 0.0 1.0 66 121
r 0.148384 0 1 tcp 1540 ------- 0 0.0 1.0 57 103
+ 0.148384 1 0 ack 40 ------- 0 1.0 0.0 57 126
- 0.148384 1 0 ack 40 ------- 0 1.0 0.0 57 126
r 0.14856 1 0 ack 40 ------- 0 1.0 0.0 49 110
+ 0.14856 0 1 tcp 1540 ------- 0 0.0 1.0 69 127
0.149 21.4959
- 0.149472 0 1 tcp 1540 ------- 0 0.0 1.0 67 123
r 0.149616 0 1 tcp 1540 ------- 0 0.0 1.0 58 105
+ 0.149616 1 0 ack 40 ------- 0 1.0 0.0 58 128
- 0.149616 1 0 ack 40 ------- 0 1.0 0.0 58 128
r 0.149792 1 0 ack 40 ------- 0 1.0 0.0 50 112
+ 0.149792 0 1 tcp 1540 ------- 0 0.0 1.0 70 129
0.150 21.5424
- 0.150704 0 1 tcp 1540 ------- 0 0.0 1.0 68 125
r 0.150848 0 1 tcp 1540 ------- 0 0.0 1.0 59 107
+ 0.150848 1 0 ack 40 ------- 0 1.0 0.0 59 130
- 0.150848 1 0 ack 40 ------- 0 1.0 0.0 59 130
0.151 21.5424
r 0.151024 1 0 ack 40 ------- 0 1.0 0.0 51 114
+ 0.151024 0 1 tcp 1540 ------- 0 0.0 1.0 71 131
- 0.151936 0 1 tcp 1540 ------- 0 0.0 1.0 69 127
0.152 21.5888
r 0.15208 0 1 tcp 1540 ------- 0 0.0 1.0 60 109
+ 0.15208 1 0 ack 40 ------- 0 1.0 0.0 60 132
- 0.15208 1 0 ack 40 ------- 0 1.0 0.0 60 132
r 0.152256 1 0 ack 40 ------- 0 1.0 0.0 52 116
+ 0.152256 0 1 tcp 1540 ------- 0 0.0 1.0 72 133
0.153 21.6351
- 0.153168 0 1 tcp 1540 ------- 0 0.0 1.0 70 129
r 0.153312 0 1 tcp 1540 ------- 0 0.0 1.0 61 111
+ 0.153312 1 0 ack 40 ------- 0 1.0 0.0 61 134
- 0.153312 1 0 ack 40 ------- 0 1.0 0.0 61 134
r 0.153488 1 0 ack 40 ------- 0 1.0 0.0 53 118
+ 0.153488 0 1 tcp 1540 ------- 0 0.0 1.0 73 135
0.154 21.6813
- 0.1544 0 1 tcp 1540 ------- 0 0.0 1.0 71 131
r 0.154544 0 1 tcp 1540 ------- 0 0.0 1.0 62 113
+ 0.154544 1 0 ack 40 ------- 0 1.0 0.0 62 136
- 0.154544 1 0 ack 40 ------- 0 1.0 0.0 62 136
r 0.15472 1 0 ack 40 ------- 0 1.0 0.0 54 120
+ 0.15472 0 1 tcp 1540 ------- 0 0.0 1.0 74 137
0.155 21.7275
- 0.155632 0 1 tcp 1540 ------- 0 0.0 1.0 72 133
r 0.155776 0 1 tcp 1540 ------- 0 0.0 1.0 63 115
+ 0.155776 1 0 ack 40 ------- 0 1.0 0.0 63 138
- 0.155776 1 0 ack 40 ------- 0 1.0 0.0 63 138
r 0.155952 1 0 ack 40 ------- 0 1.0 0.0 55 122
+ 0.155952 0 1 tcp 1540 ------- 0 0.0 1.0 75 139
0.156 21.7735
- 0.156864 0 1 tcp 1540 ------- 0 0.0 1.0 73 135
0.157 21.7735
r 0.157008 0 1 tcp 1540 ------- 0 0.0 1.0 64 117
+ 0.157008 1 0 ack 40 ------- 0 1.0 0.0 64 140
- 0.157008 1 0 ack 40 ------- 0 1.0 0.0 64 140
r 0.157184 1 0 ack 40 ------- 0 1.0 0.0 56 124
+ 0.157184 0 1 tcp 1540 ------- 0 0.0 1.0 76 141
0.158 21.8194
- 0.158096 0 1 tcp 1540 ------- 0 0.0 1.0 74 137
r 0.15824 0 1 tcp 1540 ------- 0 0.0 1.0 65 119
+ 0.15824 1 0 ack 40 ------- 0 1.0 0.0 65 142
- 0.15824 1 0 ack 40 ------- 0 1.0 0.0 65 142
r 0.158416 1 0 ack 40 ------- 0 1.0 0.0 57 126
+ 0.158416 0 1 tcp 1540 ------- 0 0.0 1.0 77 143
0.159 21.8653
- 0.159328 0 1 tcp 1540 ------- 0 0.0 1.0 75 139
r 0.159472 0 1 tcp 1540 ------- 0 0.0 1.0 66 121
+ 0.159472 1 0 ack 40 ------- 0 1.0 0.0 66 144
- 0.159472 1 0 ack 40 ------- 0 1.0 0.0 66 144
r 0.159648 1 0 ack 40 ------- 0 1.0 0.0 58 128
+ 0.159648 0 1 tcp 1540 ------- 0 0.0 1.0 78 145
0.160 21.911
- 0.16056 0 1 tcp 1540 ------- 0 0.0 1.0 76 141
r 0.160704 0 1 tcp 1540 ------- 0 0.0 1.0 67 123
+ 0.160704 1 0 ack 40 ------- 0 1.0 0.0 67 146
- 0.160704 1 0 ack 40 ------- 0 1.0 0.0 67 146
r 0.16088 1 0 ack 40 ------- 0 1.0 0.0 59 130
+ 0.16088 0 1 tcp 1540 ------- 0 0.0 1.0 79 147
0.161 21.9566
- 0.161792 0 1 tcp 1540 ------- 0 0.0 1.0 77 143
r 0.161936 0 1 tcp 1540 ------- 0 0.0 1.0 68 125
+ 0.161936 1 0 ack 40 ------- 0 1.0 0.0 68 148
- 0.161936 1 0 ack 40 ------- 0 1.0 0.0 68 148
0.162 21.9566
r 0.162112 1 0 ack 40 ------- 0 1.0 0.0 60 132
+ 0.162112 0 1 tcp 1540 ------- 0 0.0 1.0 80 149
0.163 22.0022
- 0.163024 0 1 tcp 1540 ------- 0 0.0 1.0 78 145
r 0.163168 0 1 tcp 1540 ------- 0 0.0 1.0 69 127
+ 0.163168 1 0 ack 40 ------- 0 1.0 0.0 69 150
- 0.163168 1 0 ack 40 ------- 0 1.0 0.0 69 150
r 0.163344 1 0 ack 40 ------- 0 1.0 0.0 61 134
+ 0.163344 0 1 tcp 1540 ------- 0 0.0 1.0 81 151
0.164 22.0476
- 0.164256 0 1 tcp 1540 ------- 0 0.0 1.0 79 147
r 0.1644 0 1 tcp 1540 ------- 0 0.0 1.0 70 129
+ 0.1644 1 0 ack 40 ------- 0 1.0 0.0 70 152
- 0.1644 1 0 ack 40 ------- 0 1.0 0.0 70 152
r 0.164576 1 0 ack 40 ------- 0 1.0 0.0 62 136
+ 0.164576 0 1 tcp 1540 ------- 0 0.0 1.0 82 153
0.165 22.093
- 0.165488 0 1 tcp 1540 ------- 0 0.0 1.0 80 149
r 0.165632 0 1 tcp 1540 ------- 0 0.0 1.0 71 131
+ 0.165632 1 0 ack 40 ------- 0 1.0 0.0 71 154
- 0.165632 1 0 ack 40 ------- 0 1.0 0.0 71 154
r 0.165808 1 0 ack 40 ------- 0 1.0 0.0 63 138
+ 0.165808 0 1 tcp 1540 ------- 0 0.0 1.0 83 155
0.166 22.1382
- 0.16672 0 1 tcp 1540 ------- 0 0.0 1.0 81 151
r 0.166864 0 1 tcp 1540 ------- 0 0.0 1.0 72 133
+ 0.166864 1 0 ack 40 ------- 0 1.0 0.0 72 156
- 0.166864 1 0 ack 40 ------- 0 1.0 0.0 72 156
0.167 22.1382
r 0.16704 1 0 ack 40 ------- 0 1.0 0.0 64 140
+ 0.16704 0 1 tcp 1540 ------- 0 0.0 1.0 84 157
- 0.167952 0 1 tcp 1540 ------- 0 0.0 1.0 82 153
0.168 22.1834
r 0.168096 0 1 tcp 1540 ------- 0 0.0 1.0 73 135
+ 0.168096 1 0 ack 40 ------- 0 1.0 0.0 73 158
- 0.168096 1 0 ack 40 ------- 0 1.0 0.0 73 158
r 0.168272 1 0 ack 40 ------- 0 1.0 0.0 65 142
+ 0.168272 0 1 tcp 1540 ------- 0 0.0 1.0 85 159
0.169 22.2285
- 0.169184 0 1 tcp 1540 ------- 0 0.0 1.0 83 155
r 0.169328 0 1 tcp 1540 ------- 0 0.0 1.0 74 137
+ 0.169328 1 0 ack 40 ------- 0 1.0 0.0 74 160
- 0.169328 1 0 ack 40 ------- 0 1.0 0.0 74 160
r 0.169504 1 0 ack 40 ------- 0 1.0 0.0 66 144
+ 0.169504 0 1 tcp 1540 ------- 0 0.0 1.0 86 161
0.170 22.2735
- 0.170416 0 1 tcp 1540 ------- 0 0.0 1.0 84 157
r 0.17056 0 1 tcp 1540 ------- 0 0.0 1.0 75 139
+ 0.17056 1 0 ack 40 ------- 0 1.0 0.0 75 162
- 0.17056 1 0 ack 40 ------- 0 1.0 0.0 75 162
r 0.170736 1 0 ack 40 ------- 0 1.0 0.0 67 146
+ 0.170736 0 1 tcp 1540 ------- 0 0.0 1.0 87 163
0.171 22.3184
- 0.171648 0 1 tcp 1540 ------- 0 0.0 1.0 85 159
r 0.171792 0 1 tcp 1540 ------- 0 0.0 1.0 76 141
+ 0.171792 1 0 ack 40 ------- 0 1.0 0.0 76 164
- 0.171792 1 0 ack 40 ------- 0 1.0 0.0 76 164
r 0.171968 1 0 ack 40 ------- 0 1.0 0.0 68 148
+ 0.171968 0 1 tcp 1540 ------- 0 0.0 1.0 88 165
0.172 22.3632
- 0.17288 0 1 tcp 1540 ------- 0 0.0 1.0 86 161
0.173 22.3632
r 0.173024 0 1 tcp 1540 ------- 0 0.0 1.0 77 143
+ 0.173024 1 0 ack 40 ------- 0 1.0 0.0 77 166
- 0.173024 1 0 ack 40 ------- 0 1.0 0.0 77 166
r 0.1732 1 0 ack 40 ------- 0 1.0 0.0 69 150
+ 0.1732 0 1 tcp 1540 ------- 0 0.0 1.0 89 167
0.174 22.4079
- 0.174112 0 1 tcp 1540 ------- 0 0.0 1.0 87 163
r 0.174256 0 1 tcp 1540 ------- 0 0.0 1.0 78 145
+ 0.174256 1 0 ack 40 ------- 0 1.0 0.0 78 168
- 0.174256 1 0 ack 40 ------- 0 1.0 0.0 78 168
r 0.174432 1 0 ack 40 ------- 0 1.0 0.0 70 152
+ 0.174432 0 1 tcp 1540 ------- 0 0.0 1.0 90 169
0.175 22.4525
- 0.175344 0 1 tcp 1540 ------- 0 0.0 1.0 88 165
r 0.175488 0 1 tcp 1540 ------- 0 0.0 1.0 79 147
+ 0.175488 1 0 ack 40 ------- 0 1.0 0.0 79 170
- 0.175488 1 0 ack 40 ------- 0 1.0 0.0 79 170
r 0.175664 1 0 ack 40 ------- 0 1.0 0.0 71 154
+ 0.175664 0 1 tcp 1540 ------- 0 0.0 1.0 91 171
0.176 22.4971
- 0.176576 0 1 tcp 1540 ------- 0 0.0 1.0 89 167
r 0.17672 0 1 tcp 1540 ------- 0 0.0 1.0 80 149
+ 0.17672 1 0 ack 40 ------- 0 1.0 0.0 80 172
- 0.17672 1 0 ack 40 ------- 0 1.0 0.0 80 172
r 0.176896 1 0 ack 40 ------- 0 1.0 0.0 72 156
+ 0.176896 0 1 tcp 1540 ------- 0 0.0 1.0 92 173
0.177 22.5415
- 0.177808 0 1 tcp 1540 ------- 0 0.0 1.0 90 169
r 0.177952 0 1 tcp 1540 ------- 0 0.0 1.0 81 151
+ 0.177952 1 0 ack 40 ------- 0 1.0 0.0 81 174
- 0.177952 1 0 ack 40 ------- 0 1.0 0.0 81 174
0.178 22.5415
r 0.178128 1 0 ack 40 ------- 0 1.0 0.0 73 158
+ 0.178128 0 1 tcp 1540 ------- 0 0.0 1.0 93 175
0.179 22.5859
- 0.17904 0 1 tcp 1540 ------- 0 0.0 1.0 91 171
r 0.179184 0 1 tcp 1540 ------- 0 0.0 1.0 82 153
+ 0.179184 1 0 ack 40 ------- 0 1.0 0.0 82 176
- 0.179184 1 0 ack 40 ------- 0 1.0 0.0 82 176
r 0.17936 1 0 ack 40 ------- 0 1.0 0.0 74 160
+ 0.17936 0 1 tcp 1540 ------- 0 0.0 1.0 94 177
0.180 22.6301
- 0.180272 0 1 tcp 1540 ------- 0 0.0 1.0 92 173
r 0.180416 0 1 tcp 1540 ------- 0 0.0 1.0 83 155
+ 0.180416 1 0 ack 40 ------- 0 1.0 0.0 83 178
- 0.180416 1 0 ack 40 ------- 0 1.0 0.0 83 178
r 0.180592 1 0 ack 40 ------- 0 1.0 0.0 75 162
+ 0.180592 0 1 tcp 1540 ------- 0 0.0 1.0 95 179
0.181 22.6743
- 0.181504 0 1 tcp 1540 ------- 0 0.0 1.0 93 175
r 0.181648 0 1 tcp 1540 ------- 0 0.0 1.0 84 157
+ 0.181648 1 0 ack 40 ------- 0 1.0 0.0 84 180
- 0.181648 1 0 ack 40 ------- 0 1.0 0.0 84 180
r 0.181824 1 0 ack 40 ------- 0 1.0 0.0 76 164
+ 0.181824 0 1 tcp 1540 ------- 0 0.0 1.0 96 181
0.182 22.7184
- 0.182736 0 1 tcp 1540 ------- 0 0.0 1.0 94 177
r 0.18288 0 1 tcp 1540 ------- 0 0.0 1.0 85 159
+ 0.18288 1 0 ack 40 ------- 0 1.0 0.0 85 182
- 0.18288 1 0 ack 40 ------- 0 1.0 0.0 85 182
0.183 22.7184
r 0.183056 1 0 ack 40 ------- 0 1.0 0.0 77 166
+ 0.183056 0 1 tcp 1540 ------- 0 0.0 1.0 97 183
- 0.183968 0 1 tcp 1540 ------- 0 0.0 1.0 95 179
0.184 22.7625
r 0.184112 0 1 tcp 1540 ------- 0 0.0 1.0 86 161
+ 0.184112 1 0 ack 40 ------- 0 1.0 0.0 86 184
- 0.184112 1 0 ack 40 ------- 0 1.0 0.0 86 184
r 0.184288 1 0 ack 40 ------- 0 1.0 0.0 78 168
+ 0.184288 0 1 tcp 1540 ------- 0 0.0 1.0 98 185
0.185 22.8064
- 0.1852 0 1 tcp 1540 ------- 0 0.0 1.0 96 181
r 0.185344 0 1 tcp 1540 ------- 0 0.0 1.0 87 163
+ 0.185344 1 0 ack 40 ------- 0 1.0 0.0 87 186
- 0.185344 1 0 ack 40 ------- 0 1.0 0.0 87 186
r 0.18552 1 0 ack 40 ------- 0 1.0 0.0 79 170
+ 0.18552 0 1 tcp 1540 ------- 0 0.0 1.0 99 187
0.186 22.8502
- 0.186432 0 1 tcp 1540 ------- 0 0.0 1.0 97 183
r 0.186576 0 1 tcp 1540 ------- 0 0.0 1.0 88 165
+ 0.186576 1 0 ack 40 ------- 0 1.0 0.0 88 188
- 0.186576 1 0 ack 40 ------- 0 1.0 0.0 88 188
r 0.186752 1 0 ack 40 ------- 0 1.0 0.0 80 172
+ 0.186752 0 1 tcp 1540 ------- 0 0.0 1.0 100 189
0.187 22.894
- 0.187664 0 1 tcp 1540 ------- 0 0.0 1.0 98 185
r 0.187808 0 1 tcp 1540 ------- 0 0.0 1.0 89 167
+ 0.187808 1 0 ack 40 ------- 0 1.0 0.0 89 190
- 0.187808 1 0 ack 40 ------- 0 1.0 0.0 89 190
r 0.187984 1 0 ack 40 ------- 0 1.0 0.0 81 174
+ 0.187984 0 1 tcp 1540 ------- 0 0.0 1.0 101 191
0.188 22.9377
- 0.188896 0 1 tcp 1540 ------- 0 0.0 1.0 99 187
0.189 22.9377
r 0.18904 0 1 tcp 1540 ------- 0 0.0 1.0 90 169
+ 0.18904 1 0 ack 40 ------- 0 1.0 0.0 90 192
- 0.18904 1 0 ack 40 ------- 0 1.0 0.0 90 192
r 0.189216 1 0 ack 40 ------- 0 1.0 0.0 82 176
+ 0.189216 0 1 tcp 1540 ------- 0 0.0 1.0 102 193
0.190 22.9813
- 0.190128 0 1 tcp 1540 ------- 0 0.0 1.0 100 189
r 0.190272 0 1 tcp 1540 ------- 0 0.0 1.0 91 171
+ 0.190272 1 0 ack 40 ------- 0 1.0 0.0 91 194
- 0.190272 1 0 ack 40 ------- 0 1.0 0.0 91 194
r 0.190448 1 0 ack 40 ------- 0 1.0 0.0 83 178
+ 0.190448 0 1 tcp 1540 ------- 0 0.0 1.0 103 195
0.191 23.0248
- 0.19136 0 1 tcp 1540 ------- 0 0.0 1.0 101 191
r 0.191504 0 1 tcp 1540 ------- 0 0.0 1.0 92 173
+ 0.191504 1 0 ack 40 ------- 0 1.0 0.0 92 196
- 0.191504 1 0 ack 40 ------- 0 1.0 0.0 92 196
r 0.19168 1 0 ack 40 ------- 0 1.0 0.0 84 180
+ 0.19168 0 1 tcp 1540 ------- 0 0.0 1.0 104 197
0.192 23.0682
- 0.192592 0 1 tcp 1540 ------- 0 0.0 1.0 102 193
r 0.192736 0 1 tcp 1540 ------- 0 0.0 1.0 93 175
+ 0.192736 1 0 ack 40 ------- 0 1.0 0.0 93 198
- 0.192736 1 0 ack 40 ------- 0 1.0 0.0 93 198
r 0.192912 1 0 ack 40 ------- 0 1.0 0.0 85 182
+ 0.192912 0 1 tcp 1540 ------- 0 0.0 1.0 105 199
0.193 23.1116
- 0.193824 0 1 tcp 1540 ------- 0 0.0 1.0 103 195
r 0.193968 0 1 tcp 1540 ------- 0 0.0 1.0 94 177
+ 0.193968 1 0 ack 40 ------- 0 1.0 0.0 94 200
- 0.193968 1 0 ack 40 ------- 0 1.0 0.0 94 200
0.194 23.1116
r 0.194144 1 0 ack 40 ------- 0 1.0 0.0 86 184
+ 0.194144 0 1 tcp 1540 ------- 0 0.0 1.0 106 201
0.195 23.1548
- 0.195056 0 1 tcp 1540 ------- 0 0.0 1.0 104 197
r 0.1952 0 1 tcp 1540 ------- 0 0.0 1.0 95 179
+ 0.1952 1 0 ack 40 ------- 0 1.0 0.0 95 202
- 0.1952 1 0 ack 40 ------- 0 1.0 0.0 95 202
r 0.195376 1 0 ack 40 ------- 0 1.0 0.0 87 186
+ 0.195376 0 1 tcp 1540 ------- 0 0.0 1.0 107 203
0.196 23.198
- 0.196288 0 1 tcp 1540 ------- 0 0.0 1.0 105 199
r 0.196432 0 1 tcp 1540 ------- 0 0.0 1.0 96 181