+ 0 0 1 tcp 40 ------- 0 0.0 1.0 0 0
- 0 0 1 tcp 40 ------- 0 0.0 1.0 0 0
0.000 1
0.001 1
0.002 1
0.003 1
0.004 1
0.005 1
0.006 1
0.007 1
0.008 1
0.009 1
0.010 1
0.011 1
0.012 1
0.013 1
0.014 1
0.015 1
r 0.015032 0 1 tcp 40 ------- 0 0.0 1.0 0 0
+ 0.015032 1 0 ack 40 ------- 0 1.0 0.0 0 1
- 0.015032 1 0 ack 40 ------- 0 1.0 0.0 0 1
0.016 1
0.017 1
0.018 1
0.019 1
0.020 1
0.021 1
0.022 1
0.023 1
0.024 1
0.025 1
0.026 1
0.027 1
0.028 1
0.029 1
0.030 1
r 0.030064 1 0 ack 40 ------- 0 1.0 0.0 0 1
+ 0.030064 0 1 tcp 1540 ------- 0 0.0 1.0 1 2
- 0.030064 0 1 tcp 1540 ------- 0 0.0 1.0 1 2
+ 0.030064 0 1 tcp 1540 ------- 0 0.0 1.0 2 3
0.031 2
- 0.031296 0 1 tcp 1540 ------- 0 0.0 1.0 2 3
0.032 2
0.033 2
0.034 2
0.035 2
0.036 2
0.037 2
0.038 2
0.039 2
0.040 2
0.041 2
0.042 2
0.043 2
0.044 2
0.045 2
0.046 2
r 0.046296 0 1 tcp 1540 ------- 0 0.0 1.0 1 2
+ 0.046296 1 0 ack 40 ------- 0 1.0 0.0 1 4
- 0.046296 1 0 ack 40 ------- 0 1.0 0.0 1 4
0.047 2
r 0.047528 0 1 tcp 1540 ------- 0 0.0 1.0 2 3
+ 0.047528 1 0 ack 40 ------- 0 1.0 0.0 2 5
- 0.047528 1 0 ack 40 ------- 0 1.0 0.0 2 5
0.048 2
0.049 2
0.050 2
0.051 2
0.052 2
0.053 2
0.054 2
0.055 2
0.056 2
0.057 2
0.058 2
0.059 2
0.060 2
0.061 2
r 0.061328 1 0 ack 40 ------- 0 1.0 0.0 1 4
+ 0.061328 0 1 tcp 1540 ------- 0 0.0 1.0 3 6
- 0.061328 0 1 tcp 1540 ------- 0 0.0 1.0 3 6
+ 0.061328 0 1 tcp 1540 ------- 0 0.0 1.0 4 7
0.062 3
r 0.06256 1 0 ack 40 ------- 0 1.0 0.0 2 5
+ 0.06256 0 1 tcp 1540 ------- 0 0.0 1.0 5 8
+ 0.06256 0 1 tcp 1540 ------- 0 0.0 1.0 6 9
- 0.06256 0 1 tcp 1540 ------- 0 0.0 1.0 4 7
0.063 4
- 0.063792 0 1 tcp 1540 ------- 0 0.0 1.0 5 8
0.064 4
0.065 4
- 0.065024 0 1 tcp 1540 ------- 0 0.0 1.0 6 9
0.066 4
0.067 4
0.068 4
0.069 4
0.070 4
0.071 4
0.072 4
0.073 4
0.074 4
0.075 4
0.076 4
0.077 4
r 0.07756 0 1 tcp 1540 ------- 0 0.0 1.0 3 6
+ 0.07756 1 0 ack 40 ------- 0 1.0 0.0 3 10
- 0.07756 1 0 ack 40 ------- 0 1.0 0.0 3 10
0.078 4
r 0.078792 0 1 tcp 1540 ------- 0 0.0 1.0 4 7
+ 0.078792 1 0 ack 40 ------- 0 1.0 0.0 4 11
- 0.078792 1 0 ack 40 ------- 0 1.0 0.0 4 11
0.079 4
0.080 4
r 0.080024 0 1 tcp 1540 ------- 0 0.0 1.0 5 8
+ 0.080024 1 0 ack 40 ------- 0 1.0 0.0 5 12
- 0.080024 1 0 ack 40 ------- 0 1.0 0.0 5 12
0.081 4
r 0.081256 0 1 tcp 1540 ------- 0 0.0 1.0 6 9
+ 0.081256 1 0 ack 40 ------- 0 1.0 0.0 6 13
- 0.081256 1 0 ack 40 ------- 0 1.0 0.0 6 13
0.082 4
0.083 4
0.084 4
0.085 4
0.086 4
0.087 4
0.088 4
0.089 4
0.090 4
0.091 4
0.092 4
r 0.092592 1 0 ack 40 ------- 0 1.0 0.0 3 10
+ 0.092592 0 1 tcp 1540 ------- 0 0.0 1.0 7 14
- 0.092592 0 1 tcp 1540 ------- 0 0.0 1.0 7 14
+ 0.092592 0 1 tcp 1540 ------- 0 0.0 1.0 8 15
0.093 5
r 0.093824 1 0 ack 40 ------- 0 1.0 0.0 4 11
+ 0.093824 0 1 tcp 1540 ------- 0 0.0 1.0 9 16
+ 0.093824 0 1 tcp 1540 ------- 0 0.0 1.0 10 17
- 0.093824 0 1 tcp 1540 ------- 0 0.0 1.0 8 15
0.094 6
0.095 6
r 0.095056 1 0 ack 40 ------- 0 1.0 0.0 5 12
+ 0.095056 0 1 tcp 1540 ------- 0 0.0 1.0 11 18
+ 0.095056 0 1 tcp 1540 ------- 0 0.0 1.0 12 19
- 0.095056 0 1 tcp 1540 ------- 0 0.0 1.0 9 16
0.096 7
r 0.096288 1 0 ack 40 ------- 0 1.0 0.0 6 13
+ 0.096288 0 1 tcp 1540 ------- 0 0.0 1.0 13 20
+ 0.096288 0 1 tcp 1540 ------- 0 0.0 1.0 14 21
- 0.096288 0 1 tcp 1540 ------- 0 0.0 1.0 10 17
0.097 8
- 0.09752 0 1 tcp 1540 ------- 0 0.0 1.0 11 18
0.098 8
- 0.098752 0 1 tcp 1540 ------- 0 0.0 1.0 12 19
0.099 8
- 0.099984 0 1 tcp 1540 ------- 0 0.0 1.0 13 20
0.100 8
0.101 8
- 0.101216 0 1 tcp 1540 ------- 0 0.0 1.0 14 21
0.102 8
0.103 8
0.104 8
0.105 8
0.106 8
0.107 8
0.108 8
r 0.108824 0 1 tcp 1540 ------- 0 0.0 1.0 7 14
+ 0.108824 1 0 ack 40 ------- 0 1.0 0.0 7 22
- 0.108824 1 0 ack 40 ------- 0 1.0 0.0 7 22
0.109 8
0.110 8
r 0.110056 0 1 tcp 1540 ------- 0 0.0 1.0 8 15
+ 0.110056 1 0 ack 40 ------- 0 1.0 0.0 8 23
- 0.110056 1 0 ack 40 ------- 0 1.0 0.0 8 23
0.111 8
r 0.111288 0 1 tcp 1540 ------- 0 0.0 1.0 9 16
+ 0.111288 1 0 ack 40 ------- 0 1.0 0.0 9 24
- 0.111288 1 0 ack 40 ------- 0 1.0 0.0 9 24
0.112 8
r 0.11252 0 1 tcp 1540 ------- 0 0.0 1.0 10 17
+ 0.11252 1 0 ack 40 ------- 0 1.0 0.0 10 25
- 0.11252 1 0 ack 40 ------- 0 1.0 0.0 10 25
0.113 8
r 0.113752 0 1 tcp 1540 ------- 0 0.0 1.0 11 18
+ 0.113752 1 0 ack 40 ------- 0 1.0 0.0 11 26
- 0.113752 1 0 ack 40 ------- 0 1.0 0.0 11 26
0.114 8
r 0.114984 0 1 tcp 1540 ------- 0 0.0 1.0 12 19
+ 0.114984 1 0 ack 40 ------- 0 1.0 0.0 12 27
- 0.114984 1 0 ack 40 ------- 0 1.0 0.0 12 27
0.115 8
0.116 8
r 0.116216 0 1 tcp 1540 ------- 0 0.0 1.0 13 20
+ 0.116216 1 0 ack 40 ------- 0 1.0 0.0 13 28
- 0.116216 1 0 ack 40 ------- 0 1.0 0.0 13 28
0.117 8
r 0.117448 0 1 tcp 1540 ------- 0 0.0 1.0 14 21
+ 0.117448 1 0 ack 40 ------- 0 1.0 0.0 14 29
- 0.117448 1 0 ack 40 ------- 0 1.0 0.0 14 29
0.118 8
0.119 8
0.120 8
0.121 8
0.122 8
0.123 8
r 0.123856 1 0 ack 40 ------- 0 1.0 0.0 7 22
+ 0.123856 0 1 tcp 1540 ------- 0 0.0 1.0 15 30
- 0.123856 0 1 tcp 1540 ------- 0 0.0 1.0 15 30
+ 0.123856 0 1 tcp 1540 ------- 0 0.0 1.0 16 31
0.124 9
0.125 9
r 0.125088 1 0 ack 40 ------- 0 1.0 0.0 8 23
+ 0.125088 0 1 tcp 1540 ------- 0 0.0 1.0 17 32
+ 0.125088 0 1 tcp 1540 ------- 0 0.0 1.0 18 33
- 0.125088 0 1 tcp 1540 ------- 0 0.0 1.0 16 31
0.126 10
r 0.12632 1 0 ack 40 ------- 0 1.0 0.0 9 24
+ 0.12632 0 1 tcp 1540 ------- 0 0.0 1.0 19 34
+ 0.12632 0 1 tcp 1540 ------- 0 0.0 1.0 20 35
- 0.12632 0 1 tcp 1540 ------- 0 0.0 1.0 17 32
0.127 11
r 0.127552 1 0 ack 40 ------- 0 1.0 0.0 10 25
+ 0.127552 0 1 tcp 1540 ------- 0 0.0 1.0 21 36
+ 0.127552 0 1 tcp 1540 ------- 0 0.0 1.0 22 37
- 0.127552 0 1 tcp 1540 ------- 0 0.0 1.0 18 33
0.128 12
r 0.128784 1 0 ack 40 ------- 0 1.0 0.0 11 26
+ 0.128784 0 1 tcp 1540 ------- 0 0.0 1.0 23 38
+ 0.128784 0 1 tcp 1540 ------- 0 0.0 1.0 24 39
- 0.128784 0 1 tcp 1540 ------- 0 0.0 1.0 19 34
0.129 13
0.130 13
r 0.130016 1 0 ack 40 ------- 0 1.0 0.0 12 27
+ 0.130016 0 1 tcp 1540 ------- 0 0.0 1.0 25 40
+ 0.130016 0 1 tcp 1540 ------- 0 0.0 1.0 26 41
- 0.130016 0 1 tcp 1540 ------- 0 0.0 1.0 20 35
0.131 14
r 0.131248 1 0 ack 40 ------- 0 1.0 0.0 13 28
+ 0.131248 0 1 tcp 1540 ------- 0 0.0 1.0 27 42
+ 0.131248 0 1 tcp 1540 ------- 0 0.0 1.0 28 43
- 0.131248 0 1 tcp 1540 ------- 0 0.0 1.0 21 36
0.132 15
r 0.13248 1 0 ack 40 ------- 0 1.0 0.0 14 29
+ 0.13248 0 1 tcp 1540 ------- 0 0.0 1.0 29 44
+ 0.13248 0 1 tcp 1540 ------- 0 0.0 1.0 30 45
- 0.13248 0 1 tcp 1540 ------- 0 0.0 1.0 22 37
0.133 16
- 0.133712 0 1 tcp 1540 ------- 0 0.0 1.0 23 38
0.134 16
- 0.134944 0 1 tcp 1540 ------- 0 0.0 1.0 24 39
0.135 16
0.136 16
- 0.136176 0 1 tcp 1540 ------- 0 0.0 1.0 25 40
0.137 16
- 0.137408 0 1 tcp 1540 ------- 0 0.0 1.0 26 41
0.138 16
- 0.13864 0 1 tcp 1540 ------- 0 0.0 1.0 27 42
0.139 16
- 0.139872 0 1 tcp 1540 ------- 0 0.0 1.0 28 43
0.140 16
r 0.140088 0 1 tcp 1540 ------- 0 0.0 1.0 15 30
+ 0.140088 1 0 ack 40 ------- 0 1.0 0.0 15 46
- 0.140088 1 0 ack 40 ------- 0 1.0 0.0 15 46
0.141 16
- 0.141104 0 1 tcp 1540 ------- 0 0.0 1.0 29 44
r 0.14132 0 1 tcp 1540 ------- 0 0.0 1.0 16 31
+ 0.14132 1 0 ack 40 ------- 0 1.0 0.0 16 47
- 0.14132 1 0 ack 40 ------- 0 1.0 0.0 16 47
0.142 16
- 0.142336 0 1 tcp 1540 ------- 0 0.0 1.0 30 45
r 0.142552 0 1 tcp 1540 ------- 0 0.0 1.0 17 32
+ 0.142552 1 0 ack 40 ------- 0 1.0 0.0 17 48
- 0.142552 1 0 ack 40 ------- 0 1.0 0.0 17 48
0.143 16
r 0.143784 0 1 tcp 1540 ------- 0 0.0 1.0 18 33
+ 0.143784 1 0 ack 40 ------- 0 1.0 0.0 18 49
- 0.143784 1 0 ack 40 ------- 0 1.0 0.0 18 49
0.144 16
0.145 16
r 0.145016 0 1 tcp 1540 ------- 0 0.0 1.0 19 34
+ 0.145016 1 0 ack 40 ------- 0 1.0 0.0 19 50
- 0.145016 1 0 ack 40 ------- 0 1.0 0.0 19 50
0.146 16
r 0.146248 0 1 tcp 1540 ------- 0 0.0 1.0 20 35
+ 0.146248 1 0 ack 40 ------- 0 1.0 0.0 20 51
- 0.146248 1 0 ack 40 ------- 0 1.0 0.0 20 51
0.147 16
r 0.14748 0 1 tcp 1540 ------- 0 0.0 1.0 21 36
+ 0.14748 1 0 ack 40 ------- 0 1.0 0.0 21 52
- 0.14748 1 0 ack 40 ------- 0 1.0 0.0 21 52
0.148 16
r 0.148712 0 1 tcp 1540 ------- 0 0.0 1.0 22 37
+ 0.148712 1 0 ack 40 ------- 0 1.0 0.0 22 53
- 0.148712 1 0 ack 40 ------- 0 1.0 0.0 22 53
0.149 16
r 0.149944 0 1 tcp 1540 ------- 0 0.0 1.0 23 38
+ 0.149944 1 0 ack 40 ------- 0 1.0 0.0 23 54
- 0.149944 1 0 ack 40 ------- 0 1.0 0.0 23 54
0.150 16
0.151 16
r 0.151176 0 1 tcp 1540 ------- 0 0.0 1.0 24 39
+ 0.151176 1 0 ack 40 ------- 0 1.0 0.0 24 55
- 0.151176 1 0 ack 40 ------- 0 1.0 0.0 24 55
0.152 16
r 0.152408 0 1 tcp 1540 ------- 0 0.0 1.0 25 40
+ 0.152408 1 0 ack 40 ------- 0 1.0 0.0 25 56
- 0.152408 1 0 ack 40 ------- 0 1.0 0.0 25 56
0.153 16
r 0.15364 0 1 tcp 1540 ------- 0 0.0 1.0 26 41
+ 0.15364 1 0 ack 40 ------- 0 1.0 0.0 26 57
- 0.15364 1 0 ack 40 ------- 0 1.0 0.0 26 57
0.154 16
r 0.154872 0 1 tcp 1540 ------- 0 0.0 1.0 27 42
+ 0.154872 1 0 ack 40 ------- 0 1.0 0.0 27 58
- 0.154872 1 0 ack 40 ------- 0 1.0 0.0 27 58
0.155 16
r 0.15512 1 0 ack 40 ------- 0 1.0 0.0 15 46
+ 0.15512 0 1 tcp 1540 ------- 0 0.0 1.0 31 59
- 0.15512 0 1 tcp 1540 ------- 0 0.0 1.0 31 59
+ 0.15512 0 1 tcp 1540 ------- 0 0.0 1.0 32 60
0.156 17
r 0.156104 0 1 tcp 1540 ------- 0 0.0 1.0 28 43
+ 0.156104 1 0 ack 40 ------- 0 1.0 0.0 28 61
- 0.156104 1 0 ack 40 ------- 0 1.0 0.0 28 61
r 0.156352 1 0 ack 40 ------- 0 1.0 0.0 16 47
+ 0.156352 0 1 tcp 1540 ------- 0 0.0 1.0 33 62
+ 0.156352 0 1 tcp 1540 ------- 0 0.0 1.0 34 63
- 0.156352 0 1 tcp 1540 ------- 0 0.0 1.0 32 60
0.157 18
r 0.157336 0 1 tcp 1540 ------- 0 0.0 1.0 29 44
+ 0.157336 1 0 ack 40 ------- 0 1.0 0.0 29 64
- 0.157336 1 0 ack 40 ------- 0 1.0 0.0 29 64
r 0.157584 1 0 ack 40 ------- 0 1.0 0.0 17 48
+ 0.157584 0 1 tcp 1540 ------- 0 0.0 1.0 35 65
+ 0.157584 0 1 tcp 1540 ------- 0 0.0 1.0 36 66
- 0.157584 0 1 tcp 1540 ------- 0 0.0 1.0 33 62
0.158 19
r 0.158568 0 1 tcp 1540 ------- 0 0.0 1.0 30 45
+ 0.158568 1 0 ack 40 ------- 0 1.0 0.0 30 67
- 0.158568 1 0 ack 40 ------- 0 1.0 0.0 30 67
r 0.158816 1 0 ack 40 ------- 0 1.0 0.0 18 49
+ 0.158816 0 1 tcp 1540 ------- 0 0.0 1.0 37 68
+ 0.158816 0 1 tcp 1540 ------- 0 0.0 1.0 38 69
- 0.158816 0 1 tcp 1540 ------- 0 0.0 1.0 34 63
0.159 20
0.160 20
r 0.160048 1 0 ack 40 ------- 0 1.0 0.0 19 50
+ 0.160048 0 1 tcp 1540 ------- 0 0.0 1.0 39 70
- 0.160048 0 1 tcp 1540 ------- 0 0.0 1.0 35 65
0.161 20.05
r 0.16128 1 0 ack 40 ------- 0 1.0 0.0 20 51
+ 0.16128 0 1 tcp 1540 ------- 0 0.0 1.0 40 71
- 0.16128 0 1 tcp 1540 ------- 0 0.0 1.0 36 66
0.162 20.0999
r 0.162512 1 0 ack 40 ------- 0 1.0 0.0 21 52
+ 0.162512 0 1 tcp 1540 ------- 0 0.0 1.0 41 72
- 0.162512 0 1 tcp 1540 ------- 0 0.0 1.0 37 68
0.163 20.1496
r 0.163744 1 0 ack 40 ------- 0 1.0 0.0 22 53
+ 0.163744 0 1 tcp 1540 ------- 0 0.0 1.0 42 73
- 0.163744 0 1 tcp 1540 ------- 0 0.0 1.0 38 69
0.164 20.1993
r 0.164976 1 0 ack 40 ------- 0 1.0 0.0 23 54
+ 0.164976 0 1 tcp 1540 ------- 0 0.0 1.0 43 74
- 0.164976 0 1 tcp 1540 ------- 0 0.0 1.0 39 70
0.165 20.2488
0.166 20.2488
r 0.166208 1 0 ack 40 ------- 0 1.0 0.0 24 55
+ 0.166208 0 1 tcp 1540 ------- 0 0.0 1.0 44 75
- 0.166208 0 1 tcp 1540 ------- 0 0.0 1.0 40 71
0.167 20.2981
r 0.16744 1 0 ack 40 ------- 0 1.0 0.0 25 56
+ 0.16744 0 1 tcp 1540 ------- 0 0.0 1.0 45 76
- 0.16744 0 1 tcp 1540 ------- 0 0.0 1.0 41 72
0.168 20.3474
r 0.168672 1 0 ack 40 ------- 0 1.0 0.0 26 57
+ 0.168672 0 1 tcp 1540 ------- 0 0.0 1.0 46 77
- 0.168672 0 1 tcp 1540 ------- 0 0.0 1.0 42 73
0.169 20.3966
r 0.169904 1 0 ack 40 ------- 0 1.0 0.0 27 58
+ 0.169904 0 1 tcp 1540 ------- 0 0.0 1.0 47 78
- 0.169904 0 1 tcp 1540 ------- 0 0.0 1.0 43 74
0.170 20.4456
0.171 20.4456
r 0.171136 1 0 ack 40 ------- 0 1.0 0.0 28 61
+ 0.171136 0 1 tcp 1540 ------- 0 0.0 1.0 48 79
- 0.171136 0 1 tcp 1540 ------- 0 0.0 1.0 44 75
r 0.171352 0 1 tcp 1540 ------- 0 0.0 1.0 31 59
+ 0.171352 1 0 ack 40 ------- 0 1.0 0.0 31 80
- 0.171352 1 0 ack 40 ------- 0 1.0 0.0 31 80
0.172 20.4945
r 0.172368 1 0 ack 40 ------- 0 1.0 0.0 29 64
+ 0.172368 0 1 tcp 1540 ------- 0 0.0 1.0 49 81
- 0.172368 0 1 tcp 1540 ------- 0 0.0 1.0 45 76
r 0.172584 0 1 tcp 1540 ------- 0 0.0 1.0 32 60
+ 0.172584 1 0 ack 40 ------- 0 1.0 0.0 32 82
- 0.172584 1 0 ack 40 ------- 0 1.0 0.0 32 82
0.173 20.5433
r 0.1736 1 0 ack 40 ------- 0 1.0 0.0 30 67
+ 0.1736 0 1 tcp 1540 ------- 0 0.0 1.0 50 83
- 0.1736 0 1 tcp 1540 ------- 0 0.0 1.0 46 77
r 0.173816 0 1 tcp 1540 ------- 0 0.0 1.0 33 62
+ 0.173816 1 0 ack 40 ------- 0 1.0 0.0 33 84
- 0.173816 1 0 ack 40 ------- 0 1.0 0.0 33 84
0.174 20.592
- 0.174832 0 1 tcp 1540 ------- 0 0.0 1.0 47 78
0.175 20.592
r 0.175048 0 1 tcp 1540 ------- 0 0.0 1.0 34 63
+ 0.175048 1 0 ack 40 ------- 0 1.0 0.0 34 85
- 0.175048 1 0 ack 40 ------- 0 1.0 0.0 34 85
0.176 20.592
- 0.176064 0 1 tcp 1540 ------- 0 0.0 1.0 48 79
r 0.17628 0 1 tcp 1540 ------- 0 0.0 1.0 35 65
+ 0.17628 1 0 ack 40 ------- 0 1.0 0.0 35 86
- 0.17628 1 0 ack 40 ------- 0 1.0 0.0 35 86
0.177 20.592
- 0.177296 0 1 tcp 1540 ------- 0 0.0 1.0 49 81
r 0.177512 0 1 tcp 1540 ------- 0 0.0 1.0 36 66
+ 0.177512 1 0 ack 40 ------- 0 1.0 0.0 36 87
- 0.177512 1 0 ack 40 ------- 0 1.0 0.0 36 87
0.178 20.592
- 0.178528 0 1 tcp 1540 ------- 0 0.0 1.0 50 83
r 0.178744 0 1 tcp 1540 ------- 0 0.0 1.0 37 68
+ 0.178744 1 0 ack 40 ------- 0 1.0 0.0 37 88
- 0.178744 1 0 ack 40 ------- 0 1.0 0.0 37 88
0.179 20.592
r 0.179976 0 1 tcp 1540 ------- 0 0.0 1.0 38 69
+ 0.179976 1 0 ack 40 ------- 0 1.0 0.0 38 89
- 0.179976 1 0 ack 40 ------- 0 1.0 0.0 38 89
0.180 20.592
0.181 20.592
r 0.181208 0 1 tcp 1540 ------- 0 0.0 1.0 39 70
+ 0.181208 1 0 ack 40 ------- 0 1.0 0.0 39 90
- 0.181208 1 0 ack 40 ------- 0 1.0 0.0 39 90
0.182 20.592
r 0.18244 0 1 tcp 1540 ------- 0 0.0 1.0 40 71
+ 0.18244 1 0 ack 40 ------- 0 1.0 0.0 40 91
- 0.18244 1 0 ack 40 ------- 0 1.0 0.0 40 91
0.183 20.592
r 0.183672 0 1 tcp 1540 ------- 0 0.0 1.0 41 72
+ 0.183672 1 0 ack 40 ------- 0 1.0 0.0 41 92
- 0.183672 1 0 ack 40 ------- 0 1.0 0.0 41 92
0.184 20.592
r 0.184904 0 1 tcp 1540 ------- 0 0.0 1.0 42 73
+ 0.184904 1 0 ack 40 ------- 0 1.0 0.0 42 93
- 0.184904 1 0 ack 40 ------- 0 1.0 0.0 42 93
0.185 20.592
0.186 20.592
r 0.186136 0 1 tcp 1540 ------- 0 0.0 1.0 43 74
+ 0.186136 1 0 ack 40 ------- 0 1.0 0.0 43 94
- 0.186136 1 0 ack 40 ------- 0 1.0 0.0 43 94
r 0.186384 1 0 ack 40 ------- 0 1.0 0.0 31 80
+ 0.186384 0 1 tcp 1540 ------- 0 0.0 1.0 51 95
- 0.186384 0 1 tcp 1540 ------- 0 0.0 1.0 51 95
0.187 20.6405
r 0.187368 0 1 tcp 1540 ------- 0 0.0 1.0 44 75
+ 0.187368 1 0 ack 40 ------- 0 1.0 0.0 44 96
- 0.187368 1 0 ack 40 ------- 0 1.0 0.0 44 96
r 0.187616 1 0 ack 40 ------- 0 1.0 0.0 32 82
+ 0.187616 0 1 tcp 1540 ------- 0 0.0 1.0 52 97
- 0.187616 0 1 tcp 1540 ------- 0 0.0 1.0 52 97
0.188 20.689
r 0.1886 0 1 tcp 1540 ------- 0 0.0 1.0 45 76
+ 0.1886 1 0 ack 40 ------- 0 1.0 0.0 45 98
- 0.1886 1 0 ack 40 ------- 0 1.0 0.0 45 98
r 0.188848 1 0 ack 40 ------- 0 1.0 0.0 33 84
+ 0.188848 0 1 tcp 1540 ------- 0 0.0 1.0 53 99
- 0.188848 0 1 tcp 1540 ------- 0 0.0 1.0 53 99
0.189 20.7373
r 0.189832 0 1 tcp 1540 ------- 0 0.0 1.0 46 77
+ 0.189832 1 0 ack 40 ------- 0 1.0 0.0 46 100
- 0.189832 1 0 ack 40 ------- 0 1.0 0.0 46 100
0.190 20.7373
r 0.19008 1 0 ack 40 ------- 0 1.0 0.0 34 85
+ 0.19008 0 1 tcp 1540 ------- 0 0.0 1.0 54 101
- 0.19008 0 1 tcp 1540 ------- 0 0.0 1.0 54 101
0.191 20.7855
r 0.191064 0 1 tcp 1540 ------- 0 0.0 1.0 47 78
+ 0.191064 1 0 ack 40 ------- 0 1.0 0.0 47 102
- 0.191064 1 0 ack 40 ------- 0 1.0 0.0 47 102
r 0.191312 1 0 ack 40 ------- 0 1.0 0.0 35 86
+ 0.191312 0 1 tcp 1540 ------- 0 0.0 1.0 55 103
- 0.191312 0 1 tcp 1540 ------- 0 0.0 1.0 55 103
0.192 20.8336
r 0.192296 0 1 tcp 1540 ------- 0 0.0 1.0 48 79
+ 0.192296 1 0 ack 40 ------- 0 1.0 0.0 48 104
- 0.192296 1 0 ack 40 ------- 0 1.0 0.0 48 104
r 0.192544 1 0 ack 40 ------- 0 1.0 0.0 36 87
+ 0.192544 0 1 tcp 1540 ------- 0 0.0 1.0 56 105
- 0.192544 0 1 tcp 1540 ------- 0 0.0 1.0 56 105
0.193 20.8816
r 0.193528 0 1 tcp 1540 ------- 0 0.0 1.0 49 81
+ 0.193528 1 0 ack 40 ------- 0 1.0 0.0 49 106
- 0.193528 1 0 ack 40 ------- 0 1.0 0.0 49 106
r 0.193776 1 0 ack 40 ------- 0 1.0 0.0 37 88
+ 0.193776 0 1 tcp 1540 ------- 0 0.0 1.0 57 107
- 0.193776 0 1 tcp 1540 ------- 0 0.0 1.0 57 107
0.194 20.9295
r 0.19476 0 1 tcp 1540 ------- 0 0.0 1.0 50 83
+ 0.19476 1 0 ack 40 ------- 0 1.0 0.0 50 108
- 0.19476 1 0 ack 40 ------- 0 1.0 0.0 50 108
0.195 20.9295
r 0.195008 1 0 ack 40 ------- 0 1.0 0.0 38 89
+ 0.195008 0 1 tcp 1540 ------- 0 0.0 1.0 58 109
- 0.195008 0 1 tcp 1540 ------- 0 0.0 1.0 58 109
0.196 20.9773
r 0.19624 1 0 ack 40 ------- 0 1.0 0.0 39 90
+ 0.19624 0 1 tcp 1540 ------- 0 0.0 1.0 59 110
- 0.19624 0 1 tcp 1540 ------- 0 0.0 1.0 59 110
0.197 21.025
r 0.197472 1 0 ack 40 ------- 0 1.0 0.0 40 91
+ 0.197472 0 1 tcp 1540 ------- 0 0.0 1.0 60 111
- 0.197472 0 1 tcp 1540 ------- 0 0.0 1.0 60 111
0.198 21.0725
r 0.198704 1 0 ack 40 ------- 0 1.0 0.0 41 92
+ 0.198704 0 1 tcp 1540 ------- 0 0.0 1.0 61 112
- 0.198704 0 1 tcp 1540 ------- 0 0.0 1.0 61 112
0.199 21.12
r 0.199936 1 0 ack 40 ------- 0 1.0 0.0 42 93
+ 0.199936 0 1 tcp 1540 ------- 0 0.0 1.0 62 113
- 0.199936 0 1 tcp 1540 ------- 0 0.0 1.0 62 113
0.200 21.1674
0.201 21.1674
r 0.201168 1 0 ack 40 ------- 0 1.0 0.0 43 94
+ 0.201168 0 1 tcp 1540 ------- 0 0.0 1.0 63 114
- 0.201168 0 1 tcp 1540 ------- 0 0.0 1.0 63 114
0.202 21.2146
r 0.2024 1 0 ack 40 ------- 0 1.0 0.0 44 96
+ 0.2024 0 1 tcp 1540 ------- 0 0.0 1.0 64 115
- 0.2024 0 1 tcp 1540 ------- 0 0.0 1.0 64 115
r 0.202616 0 1 tcp 1540 ------- 0 0.0 1.0 51 95
+ 0.202616 1 0 ack 40 ------- 0 1.0 0.0 51 116
- 0.202616 1 0 ack 40 ------- 0 1.0 0.0 51 116
0.203 21.2617
r 0.203632 1 0 ack 40 ------- 0 1.0 0.0 45 98
+ 0.203632 0 1 tcp 1540 ------- 0 0.0 1.0 65 117
- 0.203632 0 1 tcp 1540 ------- 0 0.0 1.0 65 117
r 0.203848 0 1 tcp 1540 ------- 0 0.0 1.0 52 97
+ 0.203848 1 0 ack 40 ------- 0 1.0 0.0 52 118
- 0.203848 1 0 ack 40 ------- 0 1.0 0.0 52 118
0.204 21.3088
r 0.204864 1 0 ack 40 ------- 0 1.0 0.0 46 100
+ 0.204864 0 1 tcp 1540 ------- 0 0.0 1.0 66 119
- 0.204864 0 1 tcp 1540 ------- 0 0.0 1.0 66 119
0.205 21.3557
r 0.20508 0 1 tcp 1540 ------- 0 0.0 1.0 53 99
+ 0.20508 1 0 ack 40 ------- 0 1.0 0.0 53 120
- 0.20508 1 0 ack 40 ------- 0 1.0 0.0 53 120
0.206 21.3557
r 0.206096 1 0 ack 40 ------- 0 1.0 0.0 47 102
+ 0.206096 0 1 tcp 1540 ------- 0 0.0 1.0 67 121
- 0.206096 0 1 tcp 1540 ------- 0 0.0 1.0 67 121
r 0.206312 0 1 tcp 1540 ------- 0 0.0 1.0 54 101
+ 0.206312 1 0 ack 40 ------- 0 1.0 0.0 54 122
- 0.206312 1 0 ack 40 ------- 0 1.0 0.0 54 122
0.207 21.4025
r 0.207328 1 0 ack 40 ------- 0 1.0 0.0 48 104
+ 0.207328 0 1 tcp 1540 ------- 0 0.0 1.0 68 123
- 0.207328 0 1 tcp 1540 ------- 0 0.0 1.0 68 123
r 0.207544 0 1 tcp 1540 ------- 0 0.0 1.0 55 103
+ 0.207544 1 0 ack 40 ------- 0 1.0 0.0 55 124
- 0.207544 1 0 ack 40 ------- 0 1.0 0.0 55 124
0.208 21.4492
r 0.20856 1 0 ack 40 ------- 0 1.0 0.0 49 106
+ 0.20856 0 1 tcp 1540 ------- 0 0.0 1.0 69 125
- 0.20856 0 1 tcp 1540 ------- 0 0.0 1.0 69 125
r 0.208776 0 1 tcp 1540 ------- 0 0.0 1.0 56 105
+ 0.208776 1 0 ack 40 ------- 0 1.0 0.0 56 126
- 0.208776 1 0 ack 40 ------- 0 1.0 0.0 56 126
0.209 21.4959
r 0.209792 1 0 ack 40 ------- 0 1.0 0.0 50 108
+ 0.209792 0 1 tcp 1540 ------- 0 0.0 1.0 70 127
- 0.209792 0 1 tcp 1540 ------- 0 0.0 1.0 70 127
0.210 21.5424
r 0.210008 0 1 tcp 1540 ------- 0 0.0 1.0 57 107
+ 0.210008 1 0 ack 40 ------- 0 1.0 0.0 57 128
- 0.210008 1 0 ack 40 ------- 0 1.0 0.0 57 128
0.211 21.5424
r 0.21124 0 1 tcp 1540 ------- 0 0.0 1.0 58 109
+ 0.21124 1 0 ack 40 ------- 0 1.0 0.0 58 129
- 0.21124 1 0 ack 40 ------- 0 1.0 0.0 58 129
0.212 21.5424
r 0.212472 0 1 tcp 1540 ------- 0 0.0 1.0 59 110
+ 0.212472 1 0 ack 40 ------- 0 1.0 0.0 59 130
- 0.212472 1 0 ack 40 ------- 0 1.0 0.0 59 130
0.213 21.5424
r 0.213704 0 1 tcp 1540 ------- 0 0.0 1.0 60 111
+ 0.213704 1 0 ack 40 ------- 0 1.0 0.0 60 131
- 0.213704 1 0 ack 40 ------- 0 1.0 0.0 60 131
0.214 21.5424
r 0.214936 0 1 tcp 1540 ------- 0 0.0 1.0 61 112
+ 0.214936 1 0 ack 40 ------- 0 1.0 0.0 61 132
- 0.214936 1 0 ack 40 ------- 0 1.0 0.0 61 132
0.215 21.5424
0.216 21.5424
r 0.216168 0 1 tcp 1540 ------- 0 0.0 1.0 62 113
+ 0.216168 1 0 ack 40 ------- 0 1.0 0.0 62 133
- 0.216168 1 0 ack 40 ------- 0 1.0 0.0 62 133
0.217 21.5424
r 0.2174 0 1 tcp 1540 ------- 0 0.0 1.0 63 114
+ 0.2174 1 0 ack 40 ------- 0 1.0 0.0 63 134
- 0.2174 1 0 ack 40 ------- 0 1.0 0.0 63 134
r 0.217648 1 0 ack 40 ------- 0 1.0 0.0 51 116
+ 0.217648 0 1 tcp 1540 ------- 0 0.0 1.0 71 135
- 0.217648 0 1 tcp 1540 ------- 0 0.0 1.0 71 135
0.218 21.5888
r 0.218632 0 1 tcp 1540 ------- 0 0.0 1.0 64 115
+ 0.218632 1 0 ack 40 ------- 0 1.0 0.0 64 136
- 0.218632 1 0 ack 40 ------- 0 1.0 0.0 64 136
r 0.21888 1 0 ack 40 ------- 0 1.0 0.0 52 118
+ 0.21888 0 1 tcp 1540 ------- 0 0.0 1.0 72 137
- 0.21888 0 1 tcp 1540 ------- 0 0.0 1.0 72 137
0.219 21.6351
r 0.219864 0 1 tcp 1540 ------- 0 0.0 1.0 65 117
+ 0.219864 1 0 ack 40 ------- 0 1.0 0.0 65 138
- 0.219864 1 0 ack 40 ------- 0 1.0 0.0 65 138
0.220 21.6351
r 0.220112 1 0 ack 40 ------- 0 1.0 0.0 53 120
+ 0.220112 0 1 tcp 1540 ------- 0 0.0 1.0 73 139
- 0.220112 0 1 tcp 1540 ------- 0 0.0 1.0 73 139
0.221 21.6813
r 0.221096 0 1 tcp 1540 ------- 0 0.0 1.0 66 119
+ 0.221096 1 0 ack 40 ------- 0 1.0 0.0 66 140
- 0.221096 1 0 ack 40 ------- 0 1.0 0.0 66 140
r 0.221344 1 0 ack 40 ------- 0 1.0 0.0 54 122
+ 0.221344 0 1 tcp 1540 ------- 0 0.0 1.0 74 141
- 0.221344 0 1 tcp 1540 ------- 0 0.0 1.0 74 141
0.222 21.7275
r 0.222328 0 1 tcp 1540 ------- 0 0.0 1.0 67 121
+ 0.222328 1 0 ack 40 ------- 0 1.0 0.0 67 142
- 0.222328 1 0 ack 40 ------- 0 1.0 0.0 67 142
r 0.222576 1 0 ack 40 ------- 0 1.0 0.0 55 124
+ 0.222576 0 1 tcp 1540 ------- 0 0.0 1.0 75 143
- 0.222576 0 1 tcp 1540 ------- 0 0.0 1.0 75 143
0.223 21.7735
r 0.22356 0 1 tcp 1540 ------- 0 0.0 1.0 68 123
+ 0.22356 1 0 ack 40 ------- 0 1.0 0.0 68 144
- 0.22356 1 0 ack 40 ------- 0 1.0 0.0 68 144
r 0.223808 1 0 ack 40 ------- 0 1.0 0.0 56 126
+ 0.223808 0 1 tcp 1540 ------- 0 0.0 1.0 76 145
- 0.223808 0 1 tcp 1540 ------- 0 0.0 1.0 76 145
0.224 21.8194
r 0.224792 0 1 tcp 1540 ------- 0 0.0 1.0 69 125
+ 0.224792 1 0 ack 40 ------- 0 1.0 0.0 69 146
- 0.224792 1 0 ack 40 ------- 0 1.0 0.0 69 146
0.225 21.8194
r 0.22504 1 0 ack 40 ------- 0 1.0 0.0 57 128
+ 0.22504 0 1 tcp 1540 ------- 0 0.0 1.0 77 147
- 0.22504 0 1 tcp 1540 ------- 0 0.0 1.0 77 147
0.226 21.8653
r 0.226024 0 1 tcp 1540 ------- 0 0.0 1.0 70 127
+ 0.226024 1 0 ack 40 ------- 0 1.0 0.0 70 148
- 0.226024 1 0 ack 40 ------- 0 1.0 0.0 70 148
r 0.226272 1 0 ack 40 ------- 0 1.0 0.0 58 129
+ 0.226272 0 1 tcp 1540 ------- 0 0.0 1.0 78 149
- 0.226272 0 1 tcp 1540 ------- 0 0.0 1.0 78 149
0.227 21.911
r 0.227504 1 0 ack 40 ------- 0 1.0 0.0 59 130
+ 0.227504 0 1 tcp 1540 ------- 0 0.0 1.0 79 150
- 0.227504 0 1 tcp 1540 ------- 0 0.0 1.0 79 150
0.228 21.9566
r 0.228736 1 0 ack 40 ------- 0 1.0 0.0 60 131
+ 0.228736 0 1 tcp 1540 ------- 0 0.0 1.0 80 151
- 0.228736 0 1 tcp 1540 ------- 0 0.0 1.0 80 151
0.229 22.0022
r 0.229968 1 0 ack 40 ------- 0 1.0 0.0 61 132
+ 0.229968 0 1 tcp 1540 ------- 0 0.0 1.0 81 152
- 0.229968 0 1 tcp 1540 ------- 0 0.0 1.0 81 152
0.230 22.0476
0.231 22.0476
r 0.2312 1 0 ack 40 ------- 0 1.0 0.0 62 133
+ 0.2312 0 1 tcp 1540 ------- 0 0.0 1.0 82 153
- 0.2312 0 1 tcp 1540 ------- 0 0.0 1.0 82 153
0.232 22.093
r 0.232432 1 0 ack 40 ------- 0 1.0 0.0 63 134
+ 0.232432 0 1 tcp 1540 ------- 0 0.0 1.0 83 154
- 0.232432 0 1 tcp 1540 ------- 0 0.0 1.0 83 154
0.233 22.1382
r 0.233664 1 0 ack 40 ------- 0 1.0 0.0 64 136
+ 0.233664 0 1 tcp 1540 ------- 0 0.0 1.0 84 155
- 0.233664 0 1 tcp 1540 ------- 0 0.0 1.0 84 155
r 0.23388 0 1 tcp 1540 ------- 0 0.0 1.0 71 135
+ 0.23388 1 0 ack 40 ------- 0 1.0 0.0 71 156
- 0.23388 1 0 ack 40 ------- 0 1.0 0.0 71 156
0.234 22.1834
r 0.234896 1 0 ack 40 ------- 0 1.0 0.0 65 138
+ 0.234896 0 1 tcp 1540 ------- 0 0.0 1.0 85 157
- 0.234896 0 1 tcp 1540 ------- 0 0.0 1.0 85 157
0.235 22.2285
r 0.235112 0 1 tcp 1540 ------- 0 0.0 1.0 72 137
+ 0.235112 1 0 ack 40 ------- 0 1.0 0.0 72 158
- 0.235112 1 0 ack 40 ------- 0 1.0 0.0 72 158
0.236 22.2285
r 0.236128 1 0 ack 40 ------- 0 1.0 0.0 66 140
+ 0.236128 0 1 tcp 1540 ------- 0 0.0 1.0 86 159
- 0.236128 0 1 tcp 1540 ------- 0 0.0 1.0 86 159
r 0.236344 0 1 tcp 1540 ------- 0 0.0 1.0 73 139
+ 0.236344 1 0 ack 40 ------- 0 1.0 0.0 73 160
- 0.236344 1 0 ack 40 ------- 0 1.0 0.0 73 160
0.237 22.2735
r 0.23736 1 0 ack 40 ------- 0 1.0 0.0 67 142
+ 0.23736 0 1 tcp 1540 ------- 0 0.0 1.0 87 161
- 0.23736 0 1 tcp 1540 ------- 0 0.0 1.0 87 161
r 0.237576 0 1 tcp 1540 ------- 0 0.0 1.0 74 141
+ 0.237576 1 0 ack 40 ------- 0 1.0 0.0 74 162
- 0.237576 1 0 ack 40 ------- 0 1.0 0.0 74 162
0.238 22.3184
r 0.238592 1 0 ack 40 ------- 0 1.0 0.0 68 144
+ 0.238592 0 1 tcp 1540 ------- 0 0.0 1.0 88 163
- 0.238592 0 1 tcp 1540 ------- 0 0.0 1.0 88 163
r 0.238808 0 1 tcp 1540 ------- 0 0.0 1.0 75 143
+ 0.238808 1 0 ack 40 ------- 0 1.0 0.0 75 164
- 0.238808 1 0 ack 40 ------- 0 1.0 0.0 75 164
0.239 22.3632
r 0.239824 1 0 ack 40 ------- 0 1.0 0.0 69 146
+ 0.239824 0 1 tcp 1540 ------- 0 0.0 1.0 89 165
- 0.239824 0 1 tcp 1540 ------- 0 0.0 1.0 89 165
0.240 22.4079
r 0.24004 0 1 tcp 1540 ------- 0 0.0 1.0 76 145
+ 0.24004 1 0 ack 40 ------- 0 1.0 0.0 76 166
- 0.24004 1 0 ack 40 ------- 0 1.0 0.0 76 166
0.241 22.4079
r 0.241056 1 0 ack 40 ------- 0 1.0 0.0 70 148
+ 0.241056 0 1 tcp 1540 ------- 0 0.0 1.0 90 167
- 0.241056 0 1 tcp 1540 ------- 0 0.0 1.0 90 167
r 0.241272 0 1 tcp 1540 ------- 0 0.0 1.0 77 147
+ 0.241272 1 0 ack 40 ------- 0 1.0 0.0 77 168
- 0.241272 1 0 ack 40 ------- 0 1.0 0.0 77 168
0.242 22.4525
r 0.242504 0 1 tcp 1540 ------- 0 0.0 1.0 78 149
+ 0.242504 1 0 ack 40 ------- 0 1.0 0.0 78 169
- 0.242504 1 0 ack 40 ------- 0 1.0 0.0 78 169
0.243 22.4525
r 0.243736 0 1 tcp 1540 ------- 0 0.0 1.0 79 150
+ 0.243736 1 0 ack 40 ------- 0 1.0 0.0 79 170
- 0.243736 1 0 ack 40 ------- 0 1.0 0.0 79 170
0.244 22.4525
r 0.244968 0 1 tcp 1540 ------- 0 0.0 1.0 80 151
+ 0.244968 1 0 ack 40 ------- 0 1.0 0.0 80 171
- 0.244968 1 0 ack 40 ------- 0 1.0 0.0 80 171
0.245 22.4525
0.246 22.4525
r 0.2462 0 1 tcp 1540 ------- 0 0.0 1.0 81 152
+ 0.2462 1 0 ack 40 ------- 0 1.0 0.0 81 172
- 0.2462 1 0 ack 40 ------- 0 1.0 0.0 81 172
0.247 22.4525
r 0.247432 0 1 tcp 1540 ------- 0 0.0 1.0 82 153
+ 0.247432 1 0 ack 40 ------- 0 1.0 0.0 82 173
- 0.247432 1 0 ack 40 ------- 0 1.0 0.0 82 173
0.248 22.4525
r 0.248664 0 1 tcp 1540 ------- 0 0.0 1.0 83 154
+ 0.248664 1 0 ack 40 ------- 0 1.0 0.0 83 174
- 0.248664 1 0 ack 40 ------- 0 1.0 0.0 83 174
r 0.248912 1 0 ack 40 ------- 0 1.0 0.0 71 156
+ 0.248912 0 1 tcp 1540 ------- 0 0.0 1.0 91 175
- 0.248912 0 1 tcp 1540 ------- 0 0.0 1.0 91 175
0.249 22.4971
r 0.249896 0 1 tcp 1540 ------- 0 0.0 1.0 84 155
+ 0.249896 1 0 ack 40 ------- 0 1.0 0.0 84 176
- 0.249896 1 0 ack 40 ------- 0 1.0 0.0 84 176
0.250 22.4971
r 0.250144 1 0 ack 40 ------- 0 1.0 0.0 72 158
+ 0.250144 0 1 tcp 1540 ------- 0 0.0 1.0 92 177
- 0.250144 0 1 tcp 1540 ------- 0 0.0 1.0 92 177
0.251 22.5415
r 0.251128 0 1 tcp 1540 ------- 0 0.0 1.0 85 157
+ 0.251128 1 0 ack 40 ------- 0 1.0 0.0 85 178
- 0.251128 1 0 ack 40 ------- 0 1.0 0.0 85 178
r 0.251376 1 0 ack 40 ------- 0 1.0 0.0 73 160
+ 0.251376 0 1 tcp 1540 ------- 0 0.0 1.0 93 179
- 0.251376 0 1 tcp 1540 ------- 0 0.0 1.0 93 179
0.252 22.5859
r 0.25236 0 1 tcp 1540 ------- 0 0.0 1.0 86 159
+ 0.25236 1 0 ack 40 ------- 0 1.0 0.0 86 180
- 0.25236 1 0 ack 40 ------- 0 1.0 0.0 86 180
r 0.252608 1 0 ack 40 ------- 0 1.0 0.0 74 162
+ 0.252608 0 1 tcp 1540 ------- 0 0.0 1.0 94 181
- 0.252608 0 1 tcp 1540 ------- 0 0.0 1.0 94 181
0.253 22.6301
r 0.253592 0 1 tcp 1540 ------- 0 0.0 1.0 87 161
+ 0.253592 1 0 ack 40 ------- 0 1.0 0.0 87 182
- 0.253592 1 0 ack 40 ------- 0 1.0 0.0 87 182
r 0.25384 1 0 ack 40 ------- 0 1.0 0.0 75 164
+ 0.25384 0 1 tcp 1540 ------- 0 0.0 1.0 95 183
- 0.25384 0 1 tcp 1540 ------- 0 0.0 1.0 95 183
0.254 22.6743
r 0.254824 0 1 tcp 1540 ------- 0 0.0 1.0 88 163
+ 0.254824 1 0 ack 40 ------- 0 1.0 0.0 88 184
- 0.254824 1 0 ack 40 ------- 0 1.0 0.0 88 184
0.255 22.6743
r 0.255072 1 0 ack 40 ------- 0 1.0 0.0 76 166
+ 0.255072 0 1 tcp 1540 ------- 0 0.0 1.0 96 185
- 0.255072 0 1 tcp 1540 ------- 0 0.0 1.0 96 185
0.256 22.7184
r 0.256056 0 1 tcp 1540 ------- 0 0.0 1.0 89 165
+ 0.256056 1 0 ack 40 ------- 0 1.0 0.0 89 186
- 0.256056 1 0 ack 40 ------- 0 1.0 0.0 89 186
r 0.256304 1 0 ack 40 ------- 0 1.0 0.0 77 168
+ 0.256304 0 1 tcp 1540 ------- 0 0.0 1.0 97 187
- 0.256304 0 1 tcp 1540 ------- 0 0.0 1.0 97 187
0.257 22.7625
r 0.257288 0 1 tcp 1540 ------- 0 0.0 1.0 90 167
+ 0.257288 1 0 ack 40 ------- 0 1.0 0.0 90 188
- 0.257288 1 0 ack 40 ------- 0 1.0 0.0 90 188
r 0.257536 1 0 ack 40 ------- 0 1.0 0.0 78 169
+ 0.257536 0 1 tcp 1540 ------- 0 0.0 1.0 98 189
- 0.257536 0 1 tcp 1540 ------- 0 0.0 1.0 98 189
0.258 22.8064
r 0.258768 1 0 ack 40 ------- 0 1.0 0.0 79 170
+ 0.258768 0 1 tcp 1540 ------- 0 0.0 1.0 99 190
- 0.258768 0 1 tcp 1540 ------- 0 0.0 1.0 99 190
0.259 22.8502
0.260 22.8502
r 0.26 1 0 ack 40 ------- 0 1.0 0.0 80 171
+ 0.26 0 1 tcp 1540 ------- 0 0.0 1.0 100 191
- 0.26 0 1 tcp 1540 ------- 0 0.0 1.0 100 191
0.261 22.894
r 0.261232 1 0 ack 40 ------- 0 1.0 0.0 81 172
+ 0.261232 0 1 tcp 1540 ------- 0 0.0 1.0 101 192
- 0.261232 0 1 tcp 1540 ------- 0 0.0 1.0 101 192
0.262 22.9377
r 0.262464 1 0 ack 40 ------- 0 1.0 0.0 82 173
+ 0.262464 0 1 tcp 1540 ------- 0 0.0 1.0 102 193
- 0.262464 0 1 tcp 1540 ------- 0 0.0 1.0 102 193
0.263 22.9813
r 0.263696 1 0 ack 40 ------- 0 1.0 0.0 83 174
+ 0.263696 0 1 tcp 1540 ------- 0 0.0 1.0 103 194
- 0.263696 0 1 tcp 1540 ------- 0 0.0 1.0 103 194
0.264 23.0248
r 0.264928 1 0 ack 40 ------- 0 1.0 0.0 84 176
+ 0.264928 0 1 tcp 1540 ------- 0 0.0 1.0 104 195
- 0.264928 0 1 tcp 1540 ------- 0 0.0 1.0 104 195
0.265 23.0682
r 0.265144 0 1 tcp 1540 ------- 0 0.0 1.0 91 175
+ 0.265144 1 0 ack 40 ------- 0 1.0 0.0 91 196
- 0.265144 1 0 ack 40 ------- 0 1.0 0.0 91 196
0.266 23.0682
r 0.26616 1 0 ack 40 ------- 0 1.0 0.0 85 178
+ 0.26616 0 1 tcp 1540 ------- 0 0.0 1.0 105 197
- 0.26616 0 1 tcp 1540 ------- 0 0.0 1.0 105 197
r 0.266376 0 1 tcp 1540 ------- 0 0.0 1.0 92 177
+ 0.266376 1 0 ack 40 ------- 0 1.0 0.0 92 198
- 0.266376 1 0 ack 40 ------- 0 1.0 0.0 92 198
0.267 23.1116